File written on 20Feb2024 at 17:02:27 

calc_only_A  :  F

begin real_lattice
   3.3564380   0.0000000   0.0000000
   0.0000000   3.3564380   0.0000000
  -1.6782190  -1.6782190   5.7182250
end real_lattice

begin recip_lattice
   1.8719801   0.0000000   0.5494000
   0.0000000   1.8719801   0.5494000
   0.0000000   0.0000000   1.0987999
end recip_lattice

begin kpoints
   500
    0.00000000    0.00000000    0.00000000
    0.00000000    0.00000000    0.20000000
    0.00000000    0.00000000    0.40000000
    0.00000000    0.00000000    0.60000000
    0.00000000    0.00000000    0.80000000
    0.00000000    0.10000000    0.00000000
    0.00000000    0.10000000    0.20000000
    0.00000000    0.10000000    0.40000000
    0.00000000    0.10000000    0.60000000
    0.00000000    0.10000000    0.80000000
    0.00000000    0.20000000    0.00000000
    0.00000000    0.20000000    0.20000000
    0.00000000    0.20000000    0.40000000
    0.00000000    0.20000000    0.60000000
    0.00000000    0.20000000    0.80000000
    0.00000000    0.30000000    0.00000000
    0.00000000    0.30000000    0.20000000
    0.00000000    0.30000000    0.40000000
    0.00000000    0.30000000    0.60000000
    0.00000000    0.30000000    0.80000000
    0.00000000    0.40000000    0.00000000
    0.00000000    0.40000000    0.20000000
    0.00000000    0.40000000    0.40000000
    0.00000000    0.40000000    0.60000000
    0.00000000    0.40000000    0.80000000
    0.00000000    0.50000000    0.00000000
    0.00000000    0.50000000    0.20000000
    0.00000000    0.50000000    0.40000000
    0.00000000    0.50000000    0.60000000
    0.00000000    0.50000000    0.80000000
    0.00000000    0.60000000    0.00000000
    0.00000000    0.60000000    0.20000000
    0.00000000    0.60000000    0.40000000
    0.00000000    0.60000000    0.60000000
    0.00000000    0.60000000    0.80000000
    0.00000000    0.70000000    0.00000000
    0.00000000    0.70000000    0.20000000
    0.00000000    0.70000000    0.40000000
    0.00000000    0.70000000    0.60000000
    0.00000000    0.70000000    0.80000000
    0.00000000    0.80000000    0.00000000
    0.00000000    0.80000000    0.20000000
    0.00000000    0.80000000    0.40000000
    0.00000000    0.80000000    0.60000000
    0.00000000    0.80000000    0.80000000
    0.00000000    0.90000000    0.00000000
    0.00000000    0.90000000    0.20000000
    0.00000000    0.90000000    0.40000000
    0.00000000    0.90000000    0.60000000
    0.00000000    0.90000000    0.80000000
    0.10000000    0.00000000    0.00000000
    0.10000000    0.00000000    0.20000000
    0.10000000    0.00000000    0.40000000
    0.10000000    0.00000000    0.60000000
    0.10000000    0.00000000    0.80000000
    0.10000000    0.10000000    0.00000000
    0.10000000    0.10000000    0.20000000
    0.10000000    0.10000000    0.40000000
    0.10000000    0.10000000    0.60000000
    0.10000000    0.10000000    0.80000000
    0.10000000    0.20000000    0.00000000
    0.10000000    0.20000000    0.20000000
    0.10000000    0.20000000    0.40000000
    0.10000000    0.20000000    0.60000000
    0.10000000    0.20000000    0.80000000
    0.10000000    0.30000000    0.00000000
    0.10000000    0.30000000    0.20000000
    0.10000000    0.30000000    0.40000000
    0.10000000    0.30000000    0.60000000
    0.10000000    0.30000000    0.80000000
    0.10000000    0.40000000    0.00000000
    0.10000000    0.40000000    0.20000000
    0.10000000    0.40000000    0.40000000
    0.10000000    0.40000000    0.60000000
    0.10000000    0.40000000    0.80000000
    0.10000000    0.50000000    0.00000000
    0.10000000    0.50000000    0.20000000
    0.10000000    0.50000000    0.40000000
    0.10000000    0.50000000    0.60000000
    0.10000000    0.50000000    0.80000000
    0.10000000    0.60000000    0.00000000
    0.10000000    0.60000000    0.20000000
    0.10000000    0.60000000    0.40000000
    0.10000000    0.60000000    0.60000000
    0.10000000    0.60000000    0.80000000
    0.10000000    0.70000000    0.00000000
    0.10000000    0.70000000    0.20000000
    0.10000000    0.70000000    0.40000000
    0.10000000    0.70000000    0.60000000
    0.10000000    0.70000000    0.80000000
    0.10000000    0.80000000    0.00000000
    0.10000000    0.80000000    0.20000000
    0.10000000    0.80000000    0.40000000
    0.10000000    0.80000000    0.60000000
    0.10000000    0.80000000    0.80000000
    0.10000000    0.90000000    0.00000000
    0.10000000    0.90000000    0.20000000
    0.10000000    0.90000000    0.40000000
    0.10000000    0.90000000    0.60000000
    0.10000000    0.90000000    0.80000000
    0.20000000    0.00000000    0.00000000
    0.20000000    0.00000000    0.20000000
    0.20000000    0.00000000    0.40000000
    0.20000000    0.00000000    0.60000000
    0.20000000    0.00000000    0.80000000
    0.20000000    0.10000000    0.00000000
    0.20000000    0.10000000    0.20000000
    0.20000000    0.10000000    0.40000000
    0.20000000    0.10000000    0.60000000
    0.20000000    0.10000000    0.80000000
    0.20000000    0.20000000    0.00000000
    0.20000000    0.20000000    0.20000000
    0.20000000    0.20000000    0.40000000
    0.20000000    0.20000000    0.60000000
    0.20000000    0.20000000    0.80000000
    0.20000000    0.30000000    0.00000000
    0.20000000    0.30000000    0.20000000
    0.20000000    0.30000000    0.40000000
    0.20000000    0.30000000    0.60000000
    0.20000000    0.30000000    0.80000000
    0.20000000    0.40000000    0.00000000
    0.20000000    0.40000000    0.20000000
    0.20000000    0.40000000    0.40000000
    0.20000000    0.40000000    0.60000000
    0.20000000    0.40000000    0.80000000
    0.20000000    0.50000000    0.00000000
    0.20000000    0.50000000    0.20000000
    0.20000000    0.50000000    0.40000000
    0.20000000    0.50000000    0.60000000
    0.20000000    0.50000000    0.80000000
    0.20000000    0.60000000    0.00000000
    0.20000000    0.60000000    0.20000000
    0.20000000    0.60000000    0.40000000
    0.20000000    0.60000000    0.60000000
    0.20000000    0.60000000    0.80000000
    0.20000000    0.70000000    0.00000000
    0.20000000    0.70000000    0.20000000
    0.20000000    0.70000000    0.40000000
    0.20000000    0.70000000    0.60000000
    0.20000000    0.70000000    0.80000000
    0.20000000    0.80000000    0.00000000
    0.20000000    0.80000000    0.20000000
    0.20000000    0.80000000    0.40000000
    0.20000000    0.80000000    0.60000000
    0.20000000    0.80000000    0.80000000
    0.20000000    0.90000000    0.00000000
    0.20000000    0.90000000    0.20000000
    0.20000000    0.90000000    0.40000000
    0.20000000    0.90000000    0.60000000
    0.20000000    0.90000000    0.80000000
    0.30000000    0.00000000    0.00000000
    0.30000000    0.00000000    0.20000000
    0.30000000    0.00000000    0.40000000
    0.30000000    0.00000000    0.60000000
    0.30000000    0.00000000    0.80000000
    0.30000000    0.10000000    0.00000000
    0.30000000    0.10000000    0.20000000
    0.30000000    0.10000000    0.40000000
    0.30000000    0.10000000    0.60000000
    0.30000000    0.10000000    0.80000000
    0.30000000    0.20000000    0.00000000
    0.30000000    0.20000000    0.20000000
    0.30000000    0.20000000    0.40000000
    0.30000000    0.20000000    0.60000000
    0.30000000    0.20000000    0.80000000
    0.30000000    0.30000000    0.00000000
    0.30000000    0.30000000    0.20000000
    0.30000000    0.30000000    0.40000000
    0.30000000    0.30000000    0.60000000
    0.30000000    0.30000000    0.80000000
    0.30000000    0.40000000    0.00000000
    0.30000000    0.40000000    0.20000000
    0.30000000    0.40000000    0.40000000
    0.30000000    0.40000000    0.60000000
    0.30000000    0.40000000    0.80000000
    0.30000000    0.50000000    0.00000000
    0.30000000    0.50000000    0.20000000
    0.30000000    0.50000000    0.40000000
    0.30000000    0.50000000    0.60000000
    0.30000000    0.50000000    0.80000000
    0.30000000    0.60000000    0.00000000
    0.30000000    0.60000000    0.20000000
    0.30000000    0.60000000    0.40000000
    0.30000000    0.60000000    0.60000000
    0.30000000    0.60000000    0.80000000
    0.30000000    0.70000000    0.00000000
    0.30000000    0.70000000    0.20000000
    0.30000000    0.70000000    0.40000000
    0.30000000    0.70000000    0.60000000
    0.30000000    0.70000000    0.80000000
    0.30000000    0.80000000    0.00000000
    0.30000000    0.80000000    0.20000000
    0.30000000    0.80000000    0.40000000
    0.30000000    0.80000000    0.60000000
    0.30000000    0.80000000    0.80000000
    0.30000000    0.90000000    0.00000000
    0.30000000    0.90000000    0.20000000
    0.30000000    0.90000000    0.40000000
    0.30000000    0.90000000    0.60000000
    0.30000000    0.90000000    0.80000000
    0.40000000    0.00000000    0.00000000
    0.40000000    0.00000000    0.20000000
    0.40000000    0.00000000    0.40000000
    0.40000000    0.00000000    0.60000000
    0.40000000    0.00000000    0.80000000
    0.40000000    0.10000000    0.00000000
    0.40000000    0.10000000    0.20000000
    0.40000000    0.10000000    0.40000000
    0.40000000    0.10000000    0.60000000
    0.40000000    0.10000000    0.80000000
    0.40000000    0.20000000    0.00000000
    0.40000000    0.20000000    0.20000000
    0.40000000    0.20000000    0.40000000
    0.40000000    0.20000000    0.60000000
    0.40000000    0.20000000    0.80000000
    0.40000000    0.30000000    0.00000000
    0.40000000    0.30000000    0.20000000
    0.40000000    0.30000000    0.40000000
    0.40000000    0.30000000    0.60000000
    0.40000000    0.30000000    0.80000000
    0.40000000    0.40000000    0.00000000
    0.40000000    0.40000000    0.20000000
    0.40000000    0.40000000    0.40000000
    0.40000000    0.40000000    0.60000000
    0.40000000    0.40000000    0.80000000
    0.40000000    0.50000000    0.00000000
    0.40000000    0.50000000    0.20000000
    0.40000000    0.50000000    0.40000000
    0.40000000    0.50000000    0.60000000
    0.40000000    0.50000000    0.80000000
    0.40000000    0.60000000    0.00000000
    0.40000000    0.60000000    0.20000000
    0.40000000    0.60000000    0.40000000
    0.40000000    0.60000000    0.60000000
    0.40000000    0.60000000    0.80000000
    0.40000000    0.70000000    0.00000000
    0.40000000    0.70000000    0.20000000
    0.40000000    0.70000000    0.40000000
    0.40000000    0.70000000    0.60000000
    0.40000000    0.70000000    0.80000000
    0.40000000    0.80000000    0.00000000
    0.40000000    0.80000000    0.20000000
    0.40000000    0.80000000    0.40000000
    0.40000000    0.80000000    0.60000000
    0.40000000    0.80000000    0.80000000
    0.40000000    0.90000000    0.00000000
    0.40000000    0.90000000    0.20000000
    0.40000000    0.90000000    0.40000000
    0.40000000    0.90000000    0.60000000
    0.40000000    0.90000000    0.80000000
    0.50000000    0.00000000    0.00000000
    0.50000000    0.00000000    0.20000000
    0.50000000    0.00000000    0.40000000
    0.50000000    0.00000000    0.60000000
    0.50000000    0.00000000    0.80000000
    0.50000000    0.10000000    0.00000000
    0.50000000    0.10000000    0.20000000
    0.50000000    0.10000000    0.40000000
    0.50000000    0.10000000    0.60000000
    0.50000000    0.10000000    0.80000000
    0.50000000    0.20000000    0.00000000
    0.50000000    0.20000000    0.20000000
    0.50000000    0.20000000    0.40000000
    0.50000000    0.20000000    0.60000000
    0.50000000    0.20000000    0.80000000
    0.50000000    0.30000000    0.00000000
    0.50000000    0.30000000    0.20000000
    0.50000000    0.30000000    0.40000000
    0.50000000    0.30000000    0.60000000
    0.50000000    0.30000000    0.80000000
    0.50000000    0.40000000    0.00000000
    0.50000000    0.40000000    0.20000000
    0.50000000    0.40000000    0.40000000
    0.50000000    0.40000000    0.60000000
    0.50000000    0.40000000    0.80000000
    0.50000000    0.50000000    0.00000000
    0.50000000    0.50000000    0.20000000
    0.50000000    0.50000000    0.40000000
    0.50000000    0.50000000    0.60000000
    0.50000000    0.50000000    0.80000000
    0.50000000    0.60000000    0.00000000
    0.50000000    0.60000000    0.20000000
    0.50000000    0.60000000    0.40000000
    0.50000000    0.60000000    0.60000000
    0.50000000    0.60000000    0.80000000
    0.50000000    0.70000000    0.00000000
    0.50000000    0.70000000    0.20000000
    0.50000000    0.70000000    0.40000000
    0.50000000    0.70000000    0.60000000
    0.50000000    0.70000000    0.80000000
    0.50000000    0.80000000    0.00000000
    0.50000000    0.80000000    0.20000000
    0.50000000    0.80000000    0.40000000
    0.50000000    0.80000000    0.60000000
    0.50000000    0.80000000    0.80000000
    0.50000000    0.90000000    0.00000000
    0.50000000    0.90000000    0.20000000
    0.50000000    0.90000000    0.40000000
    0.50000000    0.90000000    0.60000000
    0.50000000    0.90000000    0.80000000
    0.60000000    0.00000000    0.00000000
    0.60000000    0.00000000    0.20000000
    0.60000000    0.00000000    0.40000000
    0.60000000    0.00000000    0.60000000
    0.60000000    0.00000000    0.80000000
    0.60000000    0.10000000    0.00000000
    0.60000000    0.10000000    0.20000000
    0.60000000    0.10000000    0.40000000
    0.60000000    0.10000000    0.60000000
    0.60000000    0.10000000    0.80000000
    0.60000000    0.20000000    0.00000000
    0.60000000    0.20000000    0.20000000
    0.60000000    0.20000000    0.40000000
    0.60000000    0.20000000    0.60000000
    0.60000000    0.20000000    0.80000000
    0.60000000    0.30000000    0.00000000
    0.60000000    0.30000000    0.20000000
    0.60000000    0.30000000    0.40000000
    0.60000000    0.30000000    0.60000000
    0.60000000    0.30000000    0.80000000
    0.60000000    0.40000000    0.00000000
    0.60000000    0.40000000    0.20000000
    0.60000000    0.40000000    0.40000000
    0.60000000    0.40000000    0.60000000
    0.60000000    0.40000000    0.80000000
    0.60000000    0.50000000    0.00000000
    0.60000000    0.50000000    0.20000000
    0.60000000    0.50000000    0.40000000
    0.60000000    0.50000000    0.60000000
    0.60000000    0.50000000    0.80000000
    0.60000000    0.60000000    0.00000000
    0.60000000    0.60000000    0.20000000
    0.60000000    0.60000000    0.40000000
    0.60000000    0.60000000    0.60000000
    0.60000000    0.60000000    0.80000000
    0.60000000    0.70000000    0.00000000
    0.60000000    0.70000000    0.20000000
    0.60000000    0.70000000    0.40000000
    0.60000000    0.70000000    0.60000000
    0.60000000    0.70000000    0.80000000
    0.60000000    0.80000000    0.00000000
    0.60000000    0.80000000    0.20000000
    0.60000000    0.80000000    0.40000000
    0.60000000    0.80000000    0.60000000
    0.60000000    0.80000000    0.80000000
    0.60000000    0.90000000    0.00000000
    0.60000000    0.90000000    0.20000000
    0.60000000    0.90000000    0.40000000
    0.60000000    0.90000000    0.60000000
    0.60000000    0.90000000    0.80000000
    0.70000000    0.00000000    0.00000000
    0.70000000    0.00000000    0.20000000
    0.70000000    0.00000000    0.40000000
    0.70000000    0.00000000    0.60000000
    0.70000000    0.00000000    0.80000000
    0.70000000    0.10000000    0.00000000
    0.70000000    0.10000000    0.20000000
    0.70000000    0.10000000    0.40000000
    0.70000000    0.10000000    0.60000000
    0.70000000    0.10000000    0.80000000
    0.70000000    0.20000000    0.00000000
    0.70000000    0.20000000    0.20000000
    0.70000000    0.20000000    0.40000000
    0.70000000    0.20000000    0.60000000
    0.70000000    0.20000000    0.80000000
    0.70000000    0.30000000    0.00000000
    0.70000000    0.30000000    0.20000000
    0.70000000    0.30000000    0.40000000
    0.70000000    0.30000000    0.60000000
    0.70000000    0.30000000    0.80000000
    0.70000000    0.40000000    0.00000000
    0.70000000    0.40000000    0.20000000
    0.70000000    0.40000000    0.40000000
    0.70000000    0.40000000    0.60000000
    0.70000000    0.40000000    0.80000000
    0.70000000    0.50000000    0.00000000
    0.70000000    0.50000000    0.20000000
    0.70000000    0.50000000    0.40000000
    0.70000000    0.50000000    0.60000000
    0.70000000    0.50000000    0.80000000
    0.70000000    0.60000000    0.00000000
    0.70000000    0.60000000    0.20000000
    0.70000000    0.60000000    0.40000000
    0.70000000    0.60000000    0.60000000
    0.70000000    0.60000000    0.80000000
    0.70000000    0.70000000    0.00000000
    0.70000000    0.70000000    0.20000000
    0.70000000    0.70000000    0.40000000
    0.70000000    0.70000000    0.60000000
    0.70000000    0.70000000    0.80000000
    0.70000000    0.80000000    0.00000000
    0.70000000    0.80000000    0.20000000
    0.70000000    0.80000000    0.40000000
    0.70000000    0.80000000    0.60000000
    0.70000000    0.80000000    0.80000000
    0.70000000    0.90000000    0.00000000
    0.70000000    0.90000000    0.20000000
    0.70000000    0.90000000    0.40000000
    0.70000000    0.90000000    0.60000000
    0.70000000    0.90000000    0.80000000
    0.80000000    0.00000000    0.00000000
    0.80000000    0.00000000    0.20000000
    0.80000000    0.00000000    0.40000000
    0.80000000    0.00000000    0.60000000
    0.80000000    0.00000000    0.80000000
    0.80000000    0.10000000    0.00000000
    0.80000000    0.10000000    0.20000000
    0.80000000    0.10000000    0.40000000
    0.80000000    0.10000000    0.60000000
    0.80000000    0.10000000    0.80000000
    0.80000000    0.20000000    0.00000000
    0.80000000    0.20000000    0.20000000
    0.80000000    0.20000000    0.40000000
    0.80000000    0.20000000    0.60000000
    0.80000000    0.20000000    0.80000000
    0.80000000    0.30000000    0.00000000
    0.80000000    0.30000000    0.20000000
    0.80000000    0.30000000    0.40000000
    0.80000000    0.30000000    0.60000000
    0.80000000    0.30000000    0.80000000
    0.80000000    0.40000000    0.00000000
    0.80000000    0.40000000    0.20000000
    0.80000000    0.40000000    0.40000000
    0.80000000    0.40000000    0.60000000
    0.80000000    0.40000000    0.80000000
    0.80000000    0.50000000    0.00000000
    0.80000000    0.50000000    0.20000000
    0.80000000    0.50000000    0.40000000
    0.80000000    0.50000000    0.60000000
    0.80000000    0.50000000    0.80000000
    0.80000000    0.60000000    0.00000000
    0.80000000    0.60000000    0.20000000
    0.80000000    0.60000000    0.40000000
    0.80000000    0.60000000    0.60000000
    0.80000000    0.60000000    0.80000000
    0.80000000    0.70000000    0.00000000
    0.80000000    0.70000000    0.20000000
    0.80000000    0.70000000    0.40000000
    0.80000000    0.70000000    0.60000000
    0.80000000    0.70000000    0.80000000
    0.80000000    0.80000000    0.00000000
    0.80000000    0.80000000    0.20000000
    0.80000000    0.80000000    0.40000000
    0.80000000    0.80000000    0.60000000
    0.80000000    0.80000000    0.80000000
    0.80000000    0.90000000    0.00000000
    0.80000000    0.90000000    0.20000000
    0.80000000    0.90000000    0.40000000
    0.80000000    0.90000000    0.60000000
    0.80000000    0.90000000    0.80000000
    0.90000000    0.00000000    0.00000000
    0.90000000    0.00000000    0.20000000
    0.90000000    0.00000000    0.40000000
    0.90000000    0.00000000    0.60000000
    0.90000000    0.00000000    0.80000000
    0.90000000    0.10000000    0.00000000
    0.90000000    0.10000000    0.20000000
    0.90000000    0.10000000    0.40000000
    0.90000000    0.10000000    0.60000000
    0.90000000    0.10000000    0.80000000
    0.90000000    0.20000000    0.00000000
    0.90000000    0.20000000    0.20000000
    0.90000000    0.20000000    0.40000000
    0.90000000    0.20000000    0.60000000
    0.90000000    0.20000000    0.80000000
    0.90000000    0.30000000    0.00000000
    0.90000000    0.30000000    0.20000000
    0.90000000    0.30000000    0.40000000
    0.90000000    0.30000000    0.60000000
    0.90000000    0.30000000    0.80000000
    0.90000000    0.40000000    0.00000000
    0.90000000    0.40000000    0.20000000
    0.90000000    0.40000000    0.40000000
    0.90000000    0.40000000    0.60000000
    0.90000000    0.40000000    0.80000000
    0.90000000    0.50000000    0.00000000
    0.90000000    0.50000000    0.20000000
    0.90000000    0.50000000    0.40000000
    0.90000000    0.50000000    0.60000000
    0.90000000    0.50000000    0.80000000
    0.90000000    0.60000000    0.00000000
    0.90000000    0.60000000    0.20000000
    0.90000000    0.60000000    0.40000000
    0.90000000    0.60000000    0.60000000
    0.90000000    0.60000000    0.80000000
    0.90000000    0.70000000    0.00000000
    0.90000000    0.70000000    0.20000000
    0.90000000    0.70000000    0.40000000
    0.90000000    0.70000000    0.60000000
    0.90000000    0.70000000    0.80000000
    0.90000000    0.80000000    0.00000000
    0.90000000    0.80000000    0.20000000
    0.90000000    0.80000000    0.40000000
    0.90000000    0.80000000    0.60000000
    0.90000000    0.80000000    0.80000000
    0.90000000    0.90000000    0.00000000
    0.90000000    0.90000000    0.20000000
    0.90000000    0.90000000    0.40000000
    0.90000000    0.90000000    0.60000000
    0.90000000    0.90000000    0.80000000
end kpoints

begin projections
    16
   0.49992    0.49992    0.99985     2  1  1
    0.0000000  0.0000000  1.0000000   1.0000000  0.0000000  0.0000000    1.00
   0.49992    0.49992    0.99985     2  2  1
    0.0000000  0.0000000  1.0000000   1.0000000  0.0000000  0.0000000    1.00
   0.49992    0.49992    0.99985     2  3  1
    0.0000000  0.0000000  1.0000000   1.0000000  0.0000000  0.0000000    1.00
   0.49992    0.49992    0.99985     2  4  1
    0.0000000  0.0000000  1.0000000   1.0000000  0.0000000  0.0000000    1.00
   0.49992    0.49992    0.99985     2  5  1
    0.0000000  0.0000000  1.0000000   1.0000000  0.0000000  0.0000000    1.00
   0.74992    0.24992    0.49985     2  1  1
    0.0000000  0.0000000  1.0000000   1.0000000  0.0000000  0.0000000    1.00
   0.74992    0.24992    0.49985     2  2  1
    0.0000000  0.0000000  1.0000000   1.0000000  0.0000000  0.0000000    1.00
   0.74992    0.24992    0.49985     2  3  1
    0.0000000  0.0000000  1.0000000   1.0000000  0.0000000  0.0000000    1.00
   0.74992    0.24992    0.49985     2  4  1
    0.0000000  0.0000000  1.0000000   1.0000000  0.0000000  0.0000000    1.00
   0.74992    0.24992    0.49985     2  5  1
    0.0000000  0.0000000  1.0000000   1.0000000  0.0000000  0.0000000    1.00
   0.91745    0.91745    0.83489     1  1  1
    0.0000000  0.0000000  1.0000000   1.0000000  0.0000000  0.0000000    1.00
   0.91745    0.91745    0.83489     1  2  1
    0.0000000  0.0000000  1.0000000   1.0000000  0.0000000  0.0000000    1.00
   0.91745    0.91745    0.83489     1  3  1
    0.0000000  0.0000000  1.0000000   1.0000000  0.0000000  0.0000000    1.00
   0.16745    0.66745    0.33489     1  1  1
    0.0000000  0.0000000  1.0000000   1.0000000  0.0000000  0.0000000    1.00
   0.16745    0.66745    0.33489     1  2  1
    0.0000000  0.0000000  1.0000000   1.0000000  0.0000000  0.0000000    1.00
   0.16745    0.66745    0.33489     1  3  1
    0.0000000  0.0000000  1.0000000   1.0000000  0.0000000  0.0000000    1.00
end projections

begin nnkpts
  10
     1     6      0   0   0
     1    51      0   0   0
     1    46      0  -1   0
     1   451     -1   0   0
     1     2      0   0   0
     1     5      0   0  -1
     1    10      0   0  -1
     1    55      0   0  -1
     1    47      0  -1   0
     1   452     -1   0   0
     2     7      0   0   0
     2    52      0   0   0
     2    47      0  -1   0
     2   452     -1   0   0
     2     1      0   0   0
     2     3      0   0   0
     2     6      0   0   0
     2    51      0   0   0
     2    48      0  -1   0
     2   453     -1   0   0
     3     8      0   0   0
     3    53      0   0   0
     3    48      0  -1   0
     3   453     -1   0   0
     3     2      0   0   0
     3     4      0   0   0
     3     7      0   0   0
     3    52      0   0   0
     3    49      0  -1   0
     3   454     -1   0   0
     4     9      0   0   0
     4    54      0   0   0
     4    49      0  -1   0
     4   454     -1   0   0
     4     3      0   0   0
     4     5      0   0   0
     4     8      0   0   0
     4    53      0   0   0
     4    50      0  -1   0
     4   455     -1   0   0
     5    10      0   0   0
     5    55      0   0   0
     5    50      0  -1   0
     5   455     -1   0   0
     5     4      0   0   0
     5     1      0   0   1
     5     9      0   0   0
     5    54      0   0   0
     5    46      0  -1   1
     5   451     -1   0   1
     6     1      0   0   0
     6    11      0   0   0
     6    56      0   0   0
     6   456     -1   0   0
     6     7      0   0   0
     6    10      0   0  -1
     6     2      0   0   0
     6    15      0   0  -1
     6    60      0   0  -1
     6   457     -1   0   0
     7     2      0   0   0
     7    12      0   0   0
     7    57      0   0   0
     7   457     -1   0   0
     7     6      0   0   0
     7     8      0   0   0
     7     3      0   0   0
     7    11      0   0   0
     7    56      0   0   0
     7   458     -1   0   0
     8     3      0   0   0
     8    13      0   0   0
     8    58      0   0   0
     8   458     -1   0   0
     8     7      0   0   0
     8     9      0   0   0
     8     4      0   0   0
     8    12      0   0   0
     8    57      0   0   0
     8   459     -1   0   0
     9     4      0   0   0
     9    14      0   0   0
     9    59      0   0   0
     9   459     -1   0   0
     9     8      0   0   0
     9    10      0   0   0
     9     5      0   0   0
     9    13      0   0   0
     9    58      0   0   0
     9   460     -1   0   0
    10     5      0   0   0
    10    15      0   0   0
    10    60      0   0   0
    10   460     -1   0   0
    10     9      0   0   0
    10     6      0   0   1
    10    14      0   0   0
    10    59      0   0   0
    10     1      0   0   1
    10   456     -1   0   1
    11     6      0   0   0
    11    16      0   0   0
    11    61      0   0   0
    11   461     -1   0   0
    11    12      0   0   0
    11    15      0   0  -1
    11     7      0   0   0
    11    20      0   0  -1
    11    65      0   0  -1
    11   462     -1   0   0
    12     7      0   0   0
    12    17      0   0   0
    12    62      0   0   0
    12   462     -1   0   0
    12    11      0   0   0
    12    13      0   0   0
    12     8      0   0   0
    12    16      0   0   0
    12    61      0   0   0
    12   463     -1   0   0
    13     8      0   0   0
    13    18      0   0   0
    13    63      0   0   0
    13   463     -1   0   0
    13    12      0   0   0
    13    14      0   0   0
    13     9      0   0   0
    13    17      0   0   0
    13    62      0   0   0
    13   464     -1   0   0
    14     9      0   0   0
    14    19      0   0   0
    14    64      0   0   0
    14   464     -1   0   0
    14    13      0   0   0
    14    15      0   0   0
    14    10      0   0   0
    14    18      0   0   0
    14    63      0   0   0
    14   465     -1   0   0
    15    10      0   0   0
    15    20      0   0   0
    15    65      0   0   0
    15   465     -1   0   0
    15    14      0   0   0
    15    11      0   0   1
    15    19      0   0   0
    15    64      0   0   0
    15     6      0   0   1
    15   461     -1   0   1
    16    11      0   0   0
    16    21      0   0   0
    16    66      0   0   0
    16   466     -1   0   0
    16    17      0   0   0
    16    20      0   0  -1
    16    12      0   0   0
    16    25      0   0  -1
    16    70      0   0  -1
    16   467     -1   0   0
    17    12      0   0   0
    17    22      0   0   0
    17    67      0   0   0
    17   467     -1   0   0
    17    16      0   0   0
    17    18      0   0   0
    17    13      0   0   0
    17    21      0   0   0
    17    66      0   0   0
    17   468     -1   0   0
    18    13      0   0   0
    18    23      0   0   0
    18    68      0   0   0
    18   468     -1   0   0
    18    17      0   0   0
    18    19      0   0   0
    18    14      0   0   0
    18    22      0   0   0
    18    67      0   0   0
    18   469     -1   0   0
    19    14      0   0   0
    19    24      0   0   0
    19    69      0   0   0
    19   469     -1   0   0
    19    18      0   0   0
    19    20      0   0   0
    19    15      0   0   0
    19    23      0   0   0
    19    68      0   0   0
    19   470     -1   0   0
    20    15      0   0   0
    20    25      0   0   0
    20    70      0   0   0
    20   470     -1   0   0
    20    19      0   0   0
    20    16      0   0   1
    20    24      0   0   0
    20    69      0   0   0
    20    11      0   0   1
    20   466     -1   0   1
    21    16      0   0   0
    21    26      0   0   0
    21    71      0   0   0
    21   471     -1   0   0
    21    22      0   0   0
    21    25      0   0  -1
    21    17      0   0   0
    21    30      0   0  -1
    21    75      0   0  -1
    21   472     -1   0   0
    22    17      0   0   0
    22    27      0   0   0
    22    72      0   0   0
    22   472     -1   0   0
    22    21      0   0   0
    22    23      0   0   0
    22    18      0   0   0
    22    26      0   0   0
    22    71      0   0   0
    22   473     -1   0   0
    23    18      0   0   0
    23    28      0   0   0
    23    73      0   0   0
    23   473     -1   0   0
    23    22      0   0   0
    23    24      0   0   0
    23    19      0   0   0
    23    27      0   0   0
    23    72      0   0   0
    23   474     -1   0   0
    24    19      0   0   0
    24    29      0   0   0
    24    74      0   0   0
    24   474     -1   0   0
    24    23      0   0   0
    24    25      0   0   0
    24    20      0   0   0
    24    28      0   0   0
    24    73      0   0   0
    24   475     -1   0   0
    25    20      0   0   0
    25    30      0   0   0
    25    75      0   0   0
    25   475     -1   0   0
    25    24      0   0   0
    25    21      0   0   1
    25    29      0   0   0
    25    74      0   0   0
    25    16      0   0   1
    25   471     -1   0   1
    26    21      0   0   0
    26    31      0   0   0
    26    76      0   0   0
    26   476     -1   0   0
    26    27      0   0   0
    26    30      0   0  -1
    26    22      0   0   0
    26    35      0   0  -1
    26    80      0   0  -1
    26   477     -1   0   0
    27    22      0   0   0
    27    32      0   0   0
    27    77      0   0   0
    27   477     -1   0   0
    27    26      0   0   0
    27    28      0   0   0
    27    23      0   0   0
    27    31      0   0   0
    27    76      0   0   0
    27   478     -1   0   0
    28    23      0   0   0
    28    33      0   0   0
    28    78      0   0   0
    28   478     -1   0   0
    28    27      0   0   0
    28    29      0   0   0
    28    24      0   0   0
    28    32      0   0   0
    28    77      0   0   0
    28   479     -1   0   0
    29    24      0   0   0
    29    34      0   0   0
    29    79      0   0   0
    29   479     -1   0   0
    29    28      0   0   0
    29    30      0   0   0
    29    25      0   0   0
    29    33      0   0   0
    29    78      0   0   0
    29   480     -1   0   0
    30    25      0   0   0
    30    35      0   0   0
    30    80      0   0   0
    30   480     -1   0   0
    30    29      0   0   0
    30    26      0   0   1
    30    34      0   0   0
    30    79      0   0   0
    30    21      0   0   1
    30   476     -1   0   1
    31    26      0   0   0
    31    36      0   0   0
    31    81      0   0   0
    31   481     -1   0   0
    31    32      0   0   0
    31    35      0   0  -1
    31    27      0   0   0
    31    40      0   0  -1
    31    85      0   0  -1
    31   482     -1   0   0
    32    27      0   0   0
    32    37      0   0   0
    32    82      0   0   0
    32   482     -1   0   0
    32    31      0   0   0
    32    33      0   0   0
    32    28      0   0   0
    32    36      0   0   0
    32    81      0   0   0
    32   483     -1   0   0
    33    28      0   0   0
    33    38      0   0   0
    33    83      0   0   0
    33   483     -1   0   0
    33    32      0   0   0
    33    34      0   0   0
    33    29      0   0   0
    33    37      0   0   0
    33    82      0   0   0
    33   484     -1   0   0
    34    29      0   0   0
    34    39      0   0   0
    34    84      0   0   0
    34   484     -1   0   0
    34    33      0   0   0
    34    35      0   0   0
    34    30      0   0   0
    34    38      0   0   0
    34    83      0   0   0
    34   485     -1   0   0
    35    30      0   0   0
    35    40      0   0   0
    35    85      0   0   0
    35   485     -1   0   0
    35    34      0   0   0
    35    31      0   0   1
    35    39      0   0   0
    35    84      0   0   0
    35    26      0   0   1
    35   481     -1   0   1
    36    31      0   0   0
    36    41      0   0   0
    36    86      0   0   0
    36   486     -1   0   0
    36    37      0   0   0
    36    40      0   0  -1
    36    32      0   0   0
    36    45      0   0  -1
    36    90      0   0  -1
    36   487     -1   0   0
    37    32      0   0   0
    37    42      0   0   0
    37    87      0   0   0
    37   487     -1   0   0
    37    36      0   0   0
    37    38      0   0   0
    37    33      0   0   0
    37    41      0   0   0
    37    86      0   0   0
    37   488     -1   0   0
    38    33      0   0   0
    38    43      0   0   0
    38    88      0   0   0
    38   488     -1   0   0
    38    37      0   0   0
    38    39      0   0   0
    38    34      0   0   0
    38    42      0   0   0
    38    87      0   0   0
    38   489     -1   0   0
    39    34      0   0   0
    39    44      0   0   0
    39    89      0   0   0
    39   489     -1   0   0
    39    38      0   0   0
    39    40      0   0   0
    39    35      0   0   0
    39    43      0   0   0
    39    88      0   0   0
    39   490     -1   0   0
    40    35      0   0   0
    40    45      0   0   0
    40    90      0   0   0
    40   490     -1   0   0
    40    39      0   0   0
    40    36      0   0   1
    40    44      0   0   0
    40    89      0   0   0
    40    31      0   0   1
    40   486     -1   0   1
    41    36      0   0   0
    41    46      0   0   0
    41    91      0   0   0
    41   491     -1   0   0
    41    42      0   0   0
    41    45      0   0  -1
    41    37      0   0   0
    41    50      0   0  -1
    41    95      0   0  -1
    41   492     -1   0   0
    42    37      0   0   0
    42    47      0   0   0
    42    92      0   0   0
    42   492     -1   0   0
    42    41      0   0   0
    42    43      0   0   0
    42    38      0   0   0
    42    46      0   0   0
    42    91      0   0   0
    42   493     -1   0   0
    43    38      0   0   0
    43    48      0   0   0
    43    93      0   0   0
    43   493     -1   0   0
    43    42      0   0   0
    43    44      0   0   0
    43    39      0   0   0
    43    47      0   0   0
    43    92      0   0   0
    43   494     -1   0   0
    44    39      0   0   0
    44    49      0   0   0
    44    94      0   0   0
    44   494     -1   0   0
    44    43      0   0   0
    44    45      0   0   0
    44    40      0   0   0
    44    48      0   0   0
    44    93      0   0   0
    44   495     -1   0   0
    45    40      0   0   0
    45    50      0   0   0
    45    95      0   0   0
    45   495     -1   0   0
    45    44      0   0   0
    45    41      0   0   1
    45    49      0   0   0
    45    94      0   0   0
    45    36      0   0   1
    45   491     -1   0   1
    46    41      0   0   0
    46    96      0   0   0
    46     1      0   1   0
    46   496     -1   0   0
    46    47      0   0   0
    46    50      0   0  -1
    46    42      0   0   0
    46   100      0   0  -1
    46     5      0   1  -1
    46   497     -1   0   0
    47    42      0   0   0
    47    97      0   0   0
    47     2      0   1   0
    47   497     -1   0   0
    47    46      0   0   0
    47    48      0   0   0
    47    43      0   0   0
    47    96      0   0   0
    47     1      0   1   0
    47   498     -1   0   0
    48    43      0   0   0
    48    98      0   0   0
    48     3      0   1   0
    48   498     -1   0   0
    48    47      0   0   0
    48    49      0   0   0
    48    44      0   0   0
    48    97      0   0   0
    48     2      0   1   0
    48   499     -1   0   0
    49    44      0   0   0
    49    99      0   0   0
    49     4      0   1   0
    49   499     -1   0   0
    49    48      0   0   0
    49    50      0   0   0
    49    45      0   0   0
    49    98      0   0   0
    49     3      0   1   0
    49   500     -1   0   0
    50    45      0   0   0
    50   100      0   0   0
    50     5      0   1   0
    50   500     -1   0   0
    50    49      0   0   0
    50    46      0   0   1
    50    99      0   0   0
    50    41      0   0   1
    50     4      0   1   0
    50   496     -1   0   1
    51     1      0   0   0
    51    56      0   0   0
    51   101      0   0   0
    51    96      0  -1   0
    51    52      0   0   0
    51    55      0   0  -1
    51     2      0   0   0
    51    60      0   0  -1
    51   105      0   0  -1
    51    97      0  -1   0
    52     2      0   0   0
    52    57      0   0   0
    52   102      0   0   0
    52    97      0  -1   0
    52    51      0   0   0
    52    53      0   0   0
    52     3      0   0   0
    52    56      0   0   0
    52   101      0   0   0
    52    98      0  -1   0
    53     3      0   0   0
    53    58      0   0   0
    53   103      0   0   0
    53    98      0  -1   0
    53    52      0   0   0
    53    54      0   0   0
    53     4      0   0   0
    53    57      0   0   0
    53   102      0   0   0
    53    99      0  -1   0
    54     4      0   0   0
    54    59      0   0   0
    54   104      0   0   0
    54    99      0  -1   0
    54    53      0   0   0
    54    55      0   0   0
    54     5      0   0   0
    54    58      0   0   0
    54   103      0   0   0
    54   100      0  -1   0
    55     5      0   0   0
    55    60      0   0   0
    55   105      0   0   0
    55   100      0  -1   0
    55    54      0   0   0
    55    51      0   0   1
    55    59      0   0   0
    55   104      0   0   0
    55     1      0   0   1
    55    96      0  -1   1
    56     6      0   0   0
    56    51      0   0   0
    56    61      0   0   0
    56   106      0   0   0
    56    57      0   0   0
    56    60      0   0  -1
    56     7      0   0   0
    56    52      0   0   0
    56    65      0   0  -1
    56   110      0   0  -1
    57     7      0   0   0
    57    52      0   0   0
    57    62      0   0   0
    57   107      0   0   0
    57    56      0   0   0
    57    58      0   0   0
    57     8      0   0   0
    57    53      0   0   0
    57    61      0   0   0
    57   106      0   0   0
    58     8      0   0   0
    58    53      0   0   0
    58    63      0   0   0
    58   108      0   0   0
    58    57      0   0   0
    58    59      0   0   0
    58     9      0   0   0
    58    54      0   0   0
    58    62      0   0   0
    58   107      0   0   0
    59     9      0   0   0
    59    54      0   0   0
    59    64      0   0   0
    59   109      0   0   0
    59    58      0   0   0
    59    60      0   0   0
    59    10      0   0   0
    59    55      0   0   0
    59    63      0   0   0
    59   108      0   0   0
    60    10      0   0   0
    60    55      0   0   0
    60    65      0   0   0
    60   110      0   0   0
    60    59      0   0   0
    60    56      0   0   1
    60    64      0   0   0
    60   109      0   0   0
    60     6      0   0   1
    60    51      0   0   1
    61    11      0   0   0
    61    56      0   0   0
    61    66      0   0   0
    61   111      0   0   0
    61    62      0   0   0
    61    65      0   0  -1
    61    12      0   0   0
    61    57      0   0   0
    61    70      0   0  -1
    61   115      0   0  -1
    62    12      0   0   0
    62    57      0   0   0
    62    67      0   0   0
    62   112      0   0   0
    62    61      0   0   0
    62    63      0   0   0
    62    13      0   0   0
    62    58      0   0   0
    62    66      0   0   0
    62   111      0   0   0
    63    13      0   0   0
    63    58      0   0   0
    63    68      0   0   0
    63   113      0   0   0
    63    62      0   0   0
    63    64      0   0   0
    63    14      0   0   0
    63    59      0   0   0
    63    67      0   0   0
    63   112      0   0   0
    64    14      0   0   0
    64    59      0   0   0
    64    69      0   0   0
    64   114      0   0   0
    64    63      0   0   0
    64    65      0   0   0
    64    15      0   0   0
    64    60      0   0   0
    64    68      0   0   0
    64   113      0   0   0
    65    15      0   0   0
    65    60      0   0   0
    65    70      0   0   0
    65   115      0   0   0
    65    64      0   0   0
    65    61      0   0   1
    65    69      0   0   0
    65   114      0   0   0
    65    11      0   0   1
    65    56      0   0   1
    66    16      0   0   0
    66    61      0   0   0
    66    71      0   0   0
    66   116      0   0   0
    66    67      0   0   0
    66    70      0   0  -1
    66    17      0   0   0
    66    62      0   0   0
    66    75      0   0  -1
    66   120      0   0  -1
    67    17      0   0   0
    67    62      0   0   0
    67    72      0   0   0
    67   117      0   0   0
    67    66      0   0   0
    67    68      0   0   0
    67    18      0   0   0
    67    63      0   0   0
    67    71      0   0   0
    67   116      0   0   0
    68    18      0   0   0
    68    63      0   0   0
    68    73      0   0   0
    68   118      0   0   0
    68    67      0   0   0
    68    69      0   0   0
    68    19      0   0   0
    68    64      0   0   0
    68    72      0   0   0
    68   117      0   0   0
    69    19      0   0   0
    69    64      0   0   0
    69    74      0   0   0
    69   119      0   0   0
    69    68      0   0   0
    69    70      0   0   0
    69    20      0   0   0
    69    65      0   0   0
    69    73      0   0   0
    69   118      0   0   0
    70    20      0   0   0
    70    65      0   0   0
    70    75      0   0   0
    70   120      0   0   0
    70    69      0   0   0
    70    66      0   0   1
    70    74      0   0   0
    70   119      0   0   0
    70    16      0   0   1
    70    61      0   0   1
    71    21      0   0   0
    71    66      0   0   0
    71    76      0   0   0
    71   121      0   0   0
    71    72      0   0   0
    71    75      0   0  -1
    71    22      0   0   0
    71    67      0   0   0
    71    80      0   0  -1
    71   125      0   0  -1
    72    22      0   0   0
    72    67      0   0   0
    72    77      0   0   0
    72   122      0   0   0
    72    71      0   0   0
    72    73      0   0   0
    72    23      0   0   0
    72    68      0   0   0
    72    76      0   0   0
    72   121      0   0   0
    73    23      0   0   0
    73    68      0   0   0
    73    78      0   0   0
    73   123      0   0   0
    73    72      0   0   0
    73    74      0   0   0
    73    24      0   0   0
    73    69      0   0   0
    73    77      0   0   0
    73   122      0   0   0
    74    24      0   0   0
    74    69      0   0   0
    74    79      0   0   0
    74   124      0   0   0
    74    73      0   0   0
    74    75      0   0   0
    74    25      0   0   0
    74    70      0   0   0
    74    78      0   0   0
    74   123      0   0   0
    75    25      0   0   0
    75    70      0   0   0
    75    80      0   0   0
    75   125      0   0   0
    75    74      0   0   0
    75    71      0   0   1
    75    79      0   0   0
    75   124      0   0   0
    75    21      0   0   1
    75    66      0   0   1
    76    26      0   0   0
    76    71      0   0   0
    76    81      0   0   0
    76   126      0   0   0
    76    77      0   0   0
    76    80      0   0  -1
    76    27      0   0   0
    76    72      0   0   0
    76    85      0   0  -1
    76   130      0   0  -1
    77    27      0   0   0
    77    72      0   0   0
    77    82      0   0   0
    77   127      0   0   0
    77    76      0   0   0
    77    78      0   0   0
    77    28      0   0   0
    77    73      0   0   0
    77    81      0   0   0
    77   126      0   0   0
    78    28      0   0   0
    78    73      0   0   0
    78    83      0   0   0
    78   128      0   0   0
    78    77      0   0   0
    78    79      0   0   0
    78    29      0   0   0
    78    74      0   0   0
    78    82      0   0   0
    78   127      0   0   0
    79    29      0   0   0
    79    74      0   0   0
    79    84      0   0   0
    79   129      0   0   0
    79    78      0   0   0
    79    80      0   0   0
    79    30      0   0   0
    79    75      0   0   0
    79    83      0   0   0
    79   128      0   0   0
    80    30      0   0   0
    80    75      0   0   0
    80    85      0   0   0
    80   130      0   0   0
    80    79      0   0   0
    80    76      0   0   1
    80    84      0   0   0
    80   129      0   0   0
    80    26      0   0   1
    80    71      0   0   1
    81    31      0   0   0
    81    76      0   0   0
    81    86      0   0   0
    81   131      0   0   0
    81    82      0   0   0
    81    85      0   0  -1
    81    32      0   0   0
    81    77      0   0   0
    81    90      0   0  -1
    81   135      0   0  -1
    82    32      0   0   0
    82    77      0   0   0
    82    87      0   0   0
    82   132      0   0   0
    82    81      0   0   0
    82    83      0   0   0
    82    33      0   0   0
    82    78      0   0   0
    82    86      0   0   0
    82   131      0   0   0
    83    33      0   0   0
    83    78      0   0   0
    83    88      0   0   0
    83   133      0   0   0
    83    82      0   0   0
    83    84      0   0   0
    83    34      0   0   0
    83    79      0   0   0
    83    87      0   0   0
    83   132      0   0   0
    84    34      0   0   0
    84    79      0   0   0
    84    89      0   0   0
    84   134      0   0   0
    84    83      0   0   0
    84    85      0   0   0
    84    35      0   0   0
    84    80      0   0   0
    84    88      0   0   0
    84   133      0   0   0
    85    35      0   0   0
    85    80      0   0   0
    85    90      0   0   0
    85   135      0   0   0
    85    84      0   0   0
    85    81      0   0   1
    85    89      0   0   0
    85   134      0   0   0
    85    31      0   0   1
    85    76      0   0   1
    86    36      0   0   0
    86    81      0   0   0
    86    91      0   0   0
    86   136      0   0   0
    86    87      0   0   0
    86    90      0   0  -1
    86    37      0   0   0
    86    82      0   0   0
    86    95      0   0  -1
    86   140      0   0  -1
    87    37      0   0   0
    87    82      0   0   0
    87    92      0   0   0
    87   137      0   0   0
    87    86      0   0   0
    87    88      0   0   0
    87    38      0   0   0
    87    83      0   0   0
    87    91      0   0   0
    87   136      0   0   0
    88    38      0   0   0
    88    83      0   0   0
    88    93      0   0   0
    88   138      0   0   0
    88    87      0   0   0
    88    89      0   0   0
    88    39      0   0   0
    88    84      0   0   0
    88    92      0   0   0
    88   137      0   0   0
    89    39      0   0   0
    89    84      0   0   0
    89    94      0   0   0
    89   139      0   0   0
    89    88      0   0   0
    89    90      0   0   0
    89    40      0   0   0
    89    85      0   0   0
    89    93      0   0   0
    89   138      0   0   0
    90    40      0   0   0
    90    85      0   0   0
    90    95      0   0   0
    90   140      0   0   0
    90    89      0   0   0
    90    86      0   0   1
    90    94      0   0   0
    90   139      0   0   0
    90    36      0   0   1
    90    81      0   0   1
    91    41      0   0   0
    91    86      0   0   0
    91    96      0   0   0
    91   141      0   0   0
    91    92      0   0   0
    91    95      0   0  -1
    91    42      0   0   0
    91    87      0   0   0
    91   100      0   0  -1
    91   145      0   0  -1
    92    42      0   0   0
    92    87      0   0   0
    92    97      0   0   0
    92   142      0   0   0
    92    91      0   0   0
    92    93      0   0   0
    92    43      0   0   0
    92    88      0   0   0
    92    96      0   0   0
    92   141      0   0   0
    93    43      0   0   0
    93    88      0   0   0
    93    98      0   0   0
    93   143      0   0   0
    93    92      0   0   0
    93    94      0   0   0
    93    44      0   0   0
    93    89      0   0   0
    93    97      0   0   0
    93   142      0   0   0
    94    44      0   0   0
    94    89      0   0   0
    94    99      0   0   0
    94   144      0   0   0
    94    93      0   0   0
    94    95      0   0   0
    94    45      0   0   0
    94    90      0   0   0
    94    98      0   0   0
    94   143      0   0   0
    95    45      0   0   0
    95    90      0   0   0
    95   100      0   0   0
    95   145      0   0   0
    95    94      0   0   0
    95    91      0   0   1
    95    99      0   0   0
    95   144      0   0   0
    95    41      0   0   1
    95    86      0   0   1
    96    46      0   0   0
    96    91      0   0   0
    96   146      0   0   0
    96    51      0   1   0
    96    97      0   0   0
    96   100      0   0  -1
    96    47      0   0   0
    96    92      0   0   0
    96   150      0   0  -1
    96    55      0   1  -1
    97    47      0   0   0
    97    92      0   0   0
    97   147      0   0   0
    97    52      0   1   0
    97    96      0   0   0
    97    98      0   0   0
    97    48      0   0   0
    97    93      0   0   0
    97   146      0   0   0
    97    51      0   1   0
    98    48      0   0   0
    98    93      0   0   0
    98   148      0   0   0
    98    53      0   1   0
    98    97      0   0   0
    98    99      0   0   0
    98    49      0   0   0
    98    94      0   0   0
    98   147      0   0   0
    98    52      0   1   0
    99    49      0   0   0
    99    94      0   0   0
    99   149      0   0   0
    99    54      0   1   0
    99    98      0   0   0
    99   100      0   0   0
    99    50      0   0   0
    99    95      0   0   0
    99   148      0   0   0
    99    53      0   1   0
   100    50      0   0   0
   100    95      0   0   0
   100   150      0   0   0
   100    55      0   1   0
   100    99      0   0   0
   100    96      0   0   1
   100   149      0   0   0
   100    46      0   0   1
   100    91      0   0   1
   100    54      0   1   0
   101    51      0   0   0
   101   106      0   0   0
   101   151      0   0   0
   101   146      0  -1   0
   101   102      0   0   0
   101   105      0   0  -1
   101    52      0   0   0
   101   110      0   0  -1
   101   155      0   0  -1
   101   147      0  -1   0
   102    52      0   0   0
   102   107      0   0   0
   102   152      0   0   0
   102   147      0  -1   0
   102   101      0   0   0
   102   103      0   0   0
   102    53      0   0   0
   102   106      0   0   0
   102   151      0   0   0
   102   148      0  -1   0
   103    53      0   0   0
   103   108      0   0   0
   103   153      0   0   0
   103   148      0  -1   0
   103   102      0   0   0
   103   104      0   0   0
   103    54      0   0   0
   103   107      0   0   0
   103   152      0   0   0
   103   149      0  -1   0
   104    54      0   0   0
   104   109      0   0   0
   104   154      0   0   0
   104   149      0  -1   0
   104   103      0   0   0
   104   105      0   0   0
   104    55      0   0   0
   104   108      0   0   0
   104   153      0   0   0
   104   150      0  -1   0
   105    55      0   0   0
   105   110      0   0   0
   105   155      0   0   0
   105   150      0  -1   0
   105   104      0   0   0
   105   101      0   0   1
   105   109      0   0   0
   105   154      0   0   0
   105    51      0   0   1
   105   146      0  -1   1
   106    56      0   0   0
   106   101      0   0   0
   106   111      0   0   0
   106   156      0   0   0
   106   107      0   0   0
   106   110      0   0  -1
   106    57      0   0   0
   106   102      0   0   0
   106   115      0   0  -1
   106   160      0   0  -1
   107    57      0   0   0
   107   102      0   0   0
   107   112      0   0   0
   107   157      0   0   0
   107   106      0   0   0
   107   108      0   0   0
   107    58      0   0   0
   107   103      0   0   0
   107   111      0   0   0
   107   156      0   0   0
   108    58      0   0   0
   108   103      0   0   0
   108   113      0   0   0
   108   158      0   0   0
   108   107      0   0   0
   108   109      0   0   0
   108    59      0   0   0
   108   104      0   0   0
   108   112      0   0   0
   108   157      0   0   0
   109    59      0   0   0
   109   104      0   0   0
   109   114      0   0   0
   109   159      0   0   0
   109   108      0   0   0
   109   110      0   0   0
   109    60      0   0   0
   109   105      0   0   0
   109   113      0   0   0
   109   158      0   0   0
   110    60      0   0   0
   110   105      0   0   0
   110   115      0   0   0
   110   160      0   0   0
   110   109      0   0   0
   110   106      0   0   1
   110   114      0   0   0
   110   159      0   0   0
   110    56      0   0   1
   110   101      0   0   1
   111    61      0   0   0
   111   106      0   0   0
   111   116      0   0   0
   111   161      0   0   0
   111   112      0   0   0
   111   115      0   0  -1
   111    62      0   0   0
   111   107      0   0   0
   111   120      0   0  -1
   111   165      0   0  -1
   112    62      0   0   0
   112   107      0   0   0
   112   117      0   0   0
   112   162      0   0   0
   112   111      0   0   0
   112   113      0   0   0
   112    63      0   0   0
   112   108      0   0   0
   112   116      0   0   0
   112   161      0   0   0
   113    63      0   0   0
   113   108      0   0   0
   113   118      0   0   0
   113   163      0   0   0
   113   112      0   0   0
   113   114      0   0   0
   113    64      0   0   0
   113   109      0   0   0
   113   117      0   0   0
   113   162      0   0   0
   114    64      0   0   0
   114   109      0   0   0
   114   119      0   0   0
   114   164      0   0   0
   114   113      0   0   0
   114   115      0   0   0
   114    65      0   0   0
   114   110      0   0   0
   114   118      0   0   0
   114   163      0   0   0
   115    65      0   0   0
   115   110      0   0   0
   115   120      0   0   0
   115   165      0   0   0
   115   114      0   0   0
   115   111      0   0   1
   115   119      0   0   0
   115   164      0   0   0
   115    61      0   0   1
   115   106      0   0   1
   116    66      0   0   0
   116   111      0   0   0
   116   121      0   0   0
   116   166      0   0   0
   116   117      0   0   0
   116   120      0   0  -1
   116    67      0   0   0
   116   112      0   0   0
   116   125      0   0  -1
   116   170      0   0  -1
   117    67      0   0   0
   117   112      0   0   0
   117   122      0   0   0
   117   167      0   0   0
   117   116      0   0   0
   117   118      0   0   0
   117    68      0   0   0
   117   113      0   0   0
   117   121      0   0   0
   117   166      0   0   0
   118    68      0   0   0
   118   113      0   0   0
   118   123      0   0   0
   118   168      0   0   0
   118   117      0   0   0
   118   119      0   0   0
   118    69      0   0   0
   118   114      0   0   0
   118   122      0   0   0
   118   167      0   0   0
   119    69      0   0   0
   119   114      0   0   0
   119   124      0   0   0
   119   169      0   0   0
   119   118      0   0   0
   119   120      0   0   0
   119    70      0   0   0
   119   115      0   0   0
   119   123      0   0   0
   119   168      0   0   0
   120    70      0   0   0
   120   115      0   0   0
   120   125      0   0   0
   120   170      0   0   0
   120   119      0   0   0
   120   116      0   0   1
   120   124      0   0   0
   120   169      0   0   0
   120    66      0   0   1
   120   111      0   0   1
   121    71      0   0   0
   121   116      0   0   0
   121   126      0   0   0
   121   171      0   0   0
   121   122      0   0   0
   121   125      0   0  -1
   121    72      0   0   0
   121   117      0   0   0
   121   130      0   0  -1
   121   175      0   0  -1
   122    72      0   0   0
   122   117      0   0   0
   122   127      0   0   0
   122   172      0   0   0
   122   121      0   0   0
   122   123      0   0   0
   122    73      0   0   0
   122   118      0   0   0
   122   126      0   0   0
   122   171      0   0   0
   123    73      0   0   0
   123   118      0   0   0
   123   128      0   0   0
   123   173      0   0   0
   123   122      0   0   0
   123   124      0   0   0
   123    74      0   0   0
   123   119      0   0   0
   123   127      0   0   0
   123   172      0   0   0
   124    74      0   0   0
   124   119      0   0   0
   124   129      0   0   0
   124   174      0   0   0
   124   123      0   0   0
   124   125      0   0   0
   124    75      0   0   0
   124   120      0   0   0
   124   128      0   0   0
   124   173      0   0   0
   125    75      0   0   0
   125   120      0   0   0
   125   130      0   0   0
   125   175      0   0   0
   125   124      0   0   0
   125   121      0   0   1
   125   129      0   0   0
   125   174      0   0   0
   125    71      0   0   1
   125   116      0   0   1
   126    76      0   0   0
   126   121      0   0   0
   126   131      0   0   0
   126   176      0   0   0
   126   127      0   0   0
   126   130      0   0  -1
   126    77      0   0   0
   126   122      0   0   0
   126   135      0   0  -1
   126   180      0   0  -1
   127    77      0   0   0
   127   122      0   0   0
   127   132      0   0   0
   127   177      0   0   0
   127   126      0   0   0
   127   128      0   0   0
   127    78      0   0   0
   127   123      0   0   0
   127   131      0   0   0
   127   176      0   0   0
   128    78      0   0   0
   128   123      0   0   0
   128   133      0   0   0
   128   178      0   0   0
   128   127      0   0   0
   128   129      0   0   0
   128    79      0   0   0
   128   124      0   0   0
   128   132      0   0   0
   128   177      0   0   0
   129    79      0   0   0
   129   124      0   0   0
   129   134      0   0   0
   129   179      0   0   0
   129   128      0   0   0
   129   130      0   0   0
   129    80      0   0   0
   129   125      0   0   0
   129   133      0   0   0
   129   178      0   0   0
   130    80      0   0   0
   130   125      0   0   0
   130   135      0   0   0
   130   180      0   0   0
   130   129      0   0   0
   130   126      0   0   1
   130   134      0   0   0
   130   179      0   0   0
   130    76      0   0   1
   130   121      0   0   1
   131    81      0   0   0
   131   126      0   0   0
   131   136      0   0   0
   131   181      0   0   0
   131   132      0   0   0
   131   135      0   0  -1
   131    82      0   0   0
   131   127      0   0   0
   131   140      0   0  -1
   131   185      0   0  -1
   132    82      0   0   0
   132   127      0   0   0
   132   137      0   0   0
   132   182      0   0   0
   132   131      0   0   0
   132   133      0   0   0
   132    83      0   0   0
   132   128      0   0   0
   132   136      0   0   0
   132   181      0   0   0
   133    83      0   0   0
   133   128      0   0   0
   133   138      0   0   0
   133   183      0   0   0
   133   132      0   0   0
   133   134      0   0   0
   133    84      0   0   0
   133   129      0   0   0
   133   137      0   0   0
   133   182      0   0   0
   134    84      0   0   0
   134   129      0   0   0
   134   139      0   0   0
   134   184      0   0   0
   134   133      0   0   0
   134   135      0   0   0
   134    85      0   0   0
   134   130      0   0   0
   134   138      0   0   0
   134   183      0   0   0
   135    85      0   0   0
   135   130      0   0   0
   135   140      0   0   0
   135   185      0   0   0
   135   134      0   0   0
   135   131      0   0   1
   135   139      0   0   0
   135   184      0   0   0
   135    81      0   0   1
   135   126      0   0   1
   136    86      0   0   0
   136   131      0   0   0
   136   141      0   0   0
   136   186      0   0   0
   136   137      0   0   0
   136   140      0   0  -1
   136    87      0   0   0
   136   132      0   0   0
   136   145      0   0  -1
   136   190      0   0  -1
   137    87      0   0   0
   137   132      0   0   0
   137   142      0   0   0
   137   187      0   0   0
   137   136      0   0   0
   137   138      0   0   0
   137    88      0   0   0
   137   133      0   0   0
   137   141      0   0   0
   137   186      0   0   0
   138    88      0   0   0
   138   133      0   0   0
   138   143      0   0   0
   138   188      0   0   0
   138   137      0   0   0
   138   139      0   0   0
   138    89      0   0   0
   138   134      0   0   0
   138   142      0   0   0
   138   187      0   0   0
   139    89      0   0   0
   139   134      0   0   0
   139   144      0   0   0
   139   189      0   0   0
   139   138      0   0   0
   139   140      0   0   0
   139    90      0   0   0
   139   135      0   0   0
   139   143      0   0   0
   139   188      0   0   0
   140    90      0   0   0
   140   135      0   0   0
   140   145      0   0   0
   140   190      0   0   0
   140   139      0   0   0
   140   136      0   0   1
   140   144      0   0   0
   140   189      0   0   0
   140    86      0   0   1
   140   131      0   0   1
   141    91      0   0   0
   141   136      0   0   0
   141   146      0   0   0
   141   191      0   0   0
   141   142      0   0   0
   141   145      0   0  -1
   141    92      0   0   0
   141   137      0   0   0
   141   150      0   0  -1
   141   195      0   0  -1
   142    92      0   0   0
   142   137      0   0   0
   142   147      0   0   0
   142   192      0   0   0
   142   141      0   0   0
   142   143      0   0   0
   142    93      0   0   0
   142   138      0   0   0
   142   146      0   0   0
   142   191      0   0   0
   143    93      0   0   0
   143   138      0   0   0
   143   148      0   0   0
   143   193      0   0   0
   143   142      0   0   0
   143   144      0   0   0
   143    94      0   0   0
   143   139      0   0   0
   143   147      0   0   0
   143   192      0   0   0
   144    94      0   0   0
   144   139      0   0   0
   144   149      0   0   0
   144   194      0   0   0
   144   143      0   0   0
   144   145      0   0   0
   144    95      0   0   0
   144   140      0   0   0
   144   148      0   0   0
   144   193      0   0   0
   145    95      0   0   0
   145   140      0   0   0
   145   150      0   0   0
   145   195      0   0   0
   145   144      0   0   0
   145   141      0   0   1
   145   149      0   0   0
   145   194      0   0   0
   145    91      0   0   1
   145   136      0   0   1
   146    96      0   0   0
   146   141      0   0   0
   146   196      0   0   0
   146   101      0   1   0
   146   147      0   0   0
   146   150      0   0  -1
   146    97      0   0   0
   146   142      0   0   0
   146   200      0   0  -1
   146   105      0   1  -1
   147    97      0   0   0
   147   142      0   0   0
   147   197      0   0   0
   147   102      0   1   0
   147   146      0   0   0
   147   148      0   0   0
   147    98      0   0   0
   147   143      0   0   0
   147   196      0   0   0
   147   101      0   1   0
   148    98      0   0   0
   148   143      0   0   0
   148   198      0   0   0
   148   103      0   1   0
   148   147      0   0   0
   148   149      0   0   0
   148    99      0   0   0
   148   144      0   0   0
   148   197      0   0   0
   148   102      0   1   0
   149    99      0   0   0
   149   144      0   0   0
   149   199      0   0   0
   149   104      0   1   0
   149   148      0   0   0
   149   150      0   0   0
   149   100      0   0   0
   149   145      0   0   0
   149   198      0   0   0
   149   103      0   1   0
   150   100      0   0   0
   150   145      0   0   0
   150   200      0   0   0
   150   105      0   1   0
   150   149      0   0   0
   150   146      0   0   1
   150   199      0   0   0
   150    96      0   0   1
   150   141      0   0   1
   150   104      0   1   0
   151   101      0   0   0
   151   156      0   0   0
   151   201      0   0   0
   151   196      0  -1   0
   151   152      0   0   0
   151   155      0   0  -1
   151   102      0   0   0
   151   160      0   0  -1
   151   205      0   0  -1
   151   197      0  -1   0
   152   102      0   0   0
   152   157      0   0   0
   152   202      0   0   0
   152   197      0  -1   0
   152   151      0   0   0
   152   153      0   0   0
   152   103      0   0   0
   152   156      0   0   0
   152   201      0   0   0
   152   198      0  -1   0
   153   103      0   0   0
   153   158      0   0   0
   153   203      0   0   0
   153   198      0  -1   0
   153   152      0   0   0
   153   154      0   0   0
   153   104      0   0   0
   153   157      0   0   0
   153   202      0   0   0
   153   199      0  -1   0
   154   104      0   0   0
   154   159      0   0   0
   154   204      0   0   0
   154   199      0  -1   0
   154   153      0   0   0
   154   155      0   0   0
   154   105      0   0   0
   154   158      0   0   0
   154   203      0   0   0
   154   200      0  -1   0
   155   105      0   0   0
   155   160      0   0   0
   155   205      0   0   0
   155   200      0  -1   0
   155   154      0   0   0
   155   151      0   0   1
   155   159      0   0   0
   155   204      0   0   0
   155   101      0   0   1
   155   196      0  -1   1
   156   106      0   0   0
   156   151      0   0   0
   156   161      0   0   0
   156   206      0   0   0
   156   157      0   0   0
   156   160      0   0  -1
   156   107      0   0   0
   156   152      0   0   0
   156   165      0   0  -1
   156   210      0   0  -1
   157   107      0   0   0
   157   152      0   0   0
   157   162      0   0   0
   157   207      0   0   0
   157   156      0   0   0
   157   158      0   0   0
   157   108      0   0   0
   157   153      0   0   0
   157   161      0   0   0
   157   206      0   0   0
   158   108      0   0   0
   158   153      0   0   0
   158   163      0   0   0
   158   208      0   0   0
   158   157      0   0   0
   158   159      0   0   0
   158   109      0   0   0
   158   154      0   0   0
   158   162      0   0   0
   158   207      0   0   0
   159   109      0   0   0
   159   154      0   0   0
   159   164      0   0   0
   159   209      0   0   0
   159   158      0   0   0
   159   160      0   0   0
   159   110      0   0   0
   159   155      0   0   0
   159   163      0   0   0
   159   208      0   0   0
   160   110      0   0   0
   160   155      0   0   0
   160   165      0   0   0
   160   210      0   0   0
   160   159      0   0   0
   160   156      0   0   1
   160   164      0   0   0
   160   209      0   0   0
   160   106      0   0   1
   160   151      0   0   1
   161   111      0   0   0
   161   156      0   0   0
   161   166      0   0   0
   161   211      0   0   0
   161   162      0   0   0
   161   165      0   0  -1
   161   112      0   0   0
   161   157      0   0   0
   161   170      0   0  -1
   161   215      0   0  -1
   162   112      0   0   0
   162   157      0   0   0
   162   167      0   0   0
   162   212      0   0   0
   162   161      0   0   0
   162   163      0   0   0
   162   113      0   0   0
   162   158      0   0   0
   162   166      0   0   0
   162   211      0   0   0
   163   113      0   0   0
   163   158      0   0   0
   163   168      0   0   0
   163   213      0   0   0
   163   162      0   0   0
   163   164      0   0   0
   163   114      0   0   0
   163   159      0   0   0
   163   167      0   0   0
   163   212      0   0   0
   164   114      0   0   0
   164   159      0   0   0
   164   169      0   0   0
   164   214      0   0   0
   164   163      0   0   0
   164   165      0   0   0
   164   115      0   0   0
   164   160      0   0   0
   164   168      0   0   0
   164   213      0   0   0
   165   115      0   0   0
   165   160      0   0   0
   165   170      0   0   0
   165   215      0   0   0
   165   164      0   0   0
   165   161      0   0   1
   165   169      0   0   0
   165   214      0   0   0
   165   111      0   0   1
   165   156      0   0   1
   166   116      0   0   0
   166   161      0   0   0
   166   171      0   0   0
   166   216      0   0   0
   166   167      0   0   0
   166   170      0   0  -1
   166   117      0   0   0
   166   162      0   0   0
   166   175      0   0  -1
   166   220      0   0  -1
   167   117      0   0   0
   167   162      0   0   0
   167   172      0   0   0
   167   217      0   0   0
   167   166      0   0   0
   167   168      0   0   0
   167   118      0   0   0
   167   163      0   0   0
   167   171      0   0   0
   167   216      0   0   0
   168   118      0   0   0
   168   163      0   0   0
   168   173      0   0   0
   168   218      0   0   0
   168   167      0   0   0
   168   169      0   0   0
   168   119      0   0   0
   168   164      0   0   0
   168   172      0   0   0
   168   217      0   0   0
   169   119      0   0   0
   169   164      0   0   0
   169   174      0   0   0
   169   219      0   0   0
   169   168      0   0   0
   169   170      0   0   0
   169   120      0   0   0
   169   165      0   0   0
   169   173      0   0   0
   169   218      0   0   0
   170   120      0   0   0
   170   165      0   0   0
   170   175      0   0   0
   170   220      0   0   0
   170   169      0   0   0
   170   166      0   0   1
   170   174      0   0   0
   170   219      0   0   0
   170   116      0   0   1
   170   161      0   0   1
   171   121      0   0   0
   171   166      0   0   0
   171   176      0   0   0
   171   221      0   0   0
   171   172      0   0   0
   171   175      0   0  -1
   171   122      0   0   0
   171   167      0   0   0
   171   180      0   0  -1
   171   225      0   0  -1
   172   122      0   0   0
   172   167      0   0   0
   172   177      0   0   0
   172   222      0   0   0
   172   171      0   0   0
   172   173      0   0   0
   172   123      0   0   0
   172   168      0   0   0
   172   176      0   0   0
   172   221      0   0   0
   173   123      0   0   0
   173   168      0   0   0
   173   178      0   0   0
   173   223      0   0   0
   173   172      0   0   0
   173   174      0   0   0
   173   124      0   0   0
   173   169      0   0   0
   173   177      0   0   0
   173   222      0   0   0
   174   124      0   0   0
   174   169      0   0   0
   174   179      0   0   0
   174   224      0   0   0
   174   173      0   0   0
   174   175      0   0   0
   174   125      0   0   0
   174   170      0   0   0
   174   178      0   0   0
   174   223      0   0   0
   175   125      0   0   0
   175   170      0   0   0
   175   180      0   0   0
   175   225      0   0   0
   175   174      0   0   0
   175   171      0   0   1
   175   179      0   0   0
   175   224      0   0   0
   175   121      0   0   1
   175   166      0   0   1
   176   126      0   0   0
   176   171      0   0   0
   176   181      0   0   0
   176   226      0   0   0
   176   177      0   0   0
   176   180      0   0  -1
   176   127      0   0   0
   176   172      0   0   0
   176   185      0   0  -1
   176   230      0   0  -1
   177   127      0   0   0
   177   172      0   0   0
   177   182      0   0   0
   177   227      0   0   0
   177   176      0   0   0
   177   178      0   0   0
   177   128      0   0   0
   177   173      0   0   0
   177   181      0   0   0
   177   226      0   0   0
   178   128      0   0   0
   178   173      0   0   0
   178   183      0   0   0
   178   228      0   0   0
   178   177      0   0   0
   178   179      0   0   0
   178   129      0   0   0
   178   174      0   0   0
   178   182      0   0   0
   178   227      0   0   0
   179   129      0   0   0
   179   174      0   0   0
   179   184      0   0   0
   179   229      0   0   0
   179   178      0   0   0
   179   180      0   0   0
   179   130      0   0   0
   179   175      0   0   0
   179   183      0   0   0
   179   228      0   0   0
   180   130      0   0   0
   180   175      0   0   0
   180   185      0   0   0
   180   230      0   0   0
   180   179      0   0   0
   180   176      0   0   1
   180   184      0   0   0
   180   229      0   0   0
   180   126      0   0   1
   180   171      0   0   1
   181   131      0   0   0
   181   176      0   0   0
   181   186      0   0   0
   181   231      0   0   0
   181   182      0   0   0
   181   185      0   0  -1
   181   132      0   0   0
   181   177      0   0   0
   181   190      0   0  -1
   181   235      0   0  -1
   182   132      0   0   0
   182   177      0   0   0
   182   187      0   0   0
   182   232      0   0   0
   182   181      0   0   0
   182   183      0   0   0
   182   133      0   0   0
   182   178      0   0   0
   182   186      0   0   0
   182   231      0   0   0
   183   133      0   0   0
   183   178      0   0   0
   183   188      0   0   0
   183   233      0   0   0
   183   182      0   0   0
   183   184      0   0   0
   183   134      0   0   0
   183   179      0   0   0
   183   187      0   0   0
   183   232      0   0   0
   184   134      0   0   0
   184   179      0   0   0
   184   189      0   0   0
   184   234      0   0   0
   184   183      0   0   0
   184   185      0   0   0
   184   135      0   0   0
   184   180      0   0   0
   184   188      0   0   0
   184   233      0   0   0
   185   135      0   0   0
   185   180      0   0   0
   185   190      0   0   0
   185   235      0   0   0
   185   184      0   0   0
   185   181      0   0   1
   185   189      0   0   0
   185   234      0   0   0
   185   131      0   0   1
   185   176      0   0   1
   186   136      0   0   0
   186   181      0   0   0
   186   191      0   0   0
   186   236      0   0   0
   186   187      0   0   0
   186   190      0   0  -1
   186   137      0   0   0
   186   182      0   0   0
   186   195      0   0  -1
   186   240      0   0  -1
   187   137      0   0   0
   187   182      0   0   0
   187   192      0   0   0
   187   237      0   0   0
   187   186      0   0   0
   187   188      0   0   0
   187   138      0   0   0
   187   183      0   0   0
   187   191      0   0   0
   187   236      0   0   0
   188   138      0   0   0
   188   183      0   0   0
   188   193      0   0   0
   188   238      0   0   0
   188   187      0   0   0
   188   189      0   0   0
   188   139      0   0   0
   188   184      0   0   0
   188   192      0   0   0
   188   237      0   0   0
   189   139      0   0   0
   189   184      0   0   0
   189   194      0   0   0
   189   239      0   0   0
   189   188      0   0   0
   189   190      0   0   0
   189   140      0   0   0
   189   185      0   0   0
   189   193      0   0   0
   189   238      0   0   0
   190   140      0   0   0
   190   185      0   0   0
   190   195      0   0   0
   190   240      0   0   0
   190   189      0   0   0
   190   186      0   0   1
   190   194      0   0   0
   190   239      0   0   0
   190   136      0   0   1
   190   181      0   0   1
   191   141      0   0   0
   191   186      0   0   0
   191   196      0   0   0
   191   241      0   0   0
   191   192      0   0   0
   191   195      0   0  -1
   191   142      0   0   0
   191   187      0   0   0
   191   200      0   0  -1
   191   245      0   0  -1
   192   142      0   0   0
   192   187      0   0   0
   192   197      0   0   0
   192   242      0   0   0
   192   191      0   0   0
   192   193      0   0   0
   192   143      0   0   0
   192   188      0   0   0
   192   196      0   0   0
   192   241      0   0   0
   193   143      0   0   0
   193   188      0   0   0
   193   198      0   0   0
   193   243      0   0   0
   193   192      0   0   0
   193   194      0   0   0
   193   144      0   0   0
   193   189      0   0   0
   193   197      0   0   0
   193   242      0   0   0
   194   144      0   0   0
   194   189      0   0   0
   194   199      0   0   0
   194   244      0   0   0
   194   193      0   0   0
   194   195      0   0   0
   194   145      0   0   0
   194   190      0   0   0
   194   198      0   0   0
   194   243      0   0   0
   195   145      0   0   0
   195   190      0   0   0
   195   200      0   0   0
   195   245      0   0   0
   195   194      0   0   0
   195   191      0   0   1
   195   199      0   0   0
   195   244      0   0   0
   195   141      0   0   1
   195   186      0   0   1
   196   146      0   0   0
   196   191      0   0   0
   196   246      0   0   0
   196   151      0   1   0
   196   197      0   0   0
   196   200      0   0  -1
   196   147      0   0   0
   196   192      0   0   0
   196   250      0   0  -1
   196   155      0   1  -1
   197   147      0   0   0
   197   192      0   0   0
   197   247      0   0   0
   197   152      0   1   0
   197   196      0   0   0
   197   198      0   0   0
   197   148      0   0   0
   197   193      0   0   0
   197   246      0   0   0
   197   151      0   1   0
   198   148      0   0   0
   198   193      0   0   0
   198   248      0   0   0
   198   153      0   1   0
   198   197      0   0   0
   198   199      0   0   0
   198   149      0   0   0
   198   194      0   0   0
   198   247      0   0   0
   198   152      0   1   0
   199   149      0   0   0
   199   194      0   0   0
   199   249      0   0   0
   199   154      0   1   0
   199   198      0   0   0
   199   200      0   0   0
   199   150      0   0   0
   199   195      0   0   0
   199   248      0   0   0
   199   153      0   1   0
   200   150      0   0   0
   200   195      0   0   0
   200   250      0   0   0
   200   155      0   1   0
   200   199      0   0   0
   200   196      0   0   1
   200   249      0   0   0
   200   146      0   0   1
   200   191      0   0   1
   200   154      0   1   0
   201   151      0   0   0
   201   206      0   0   0
[...]
   430   380      0   0   0
   430   425      0   0   0
   430   435      0   0   0
   430   480      0   0   0
   430   429      0   0   0
   430   426      0   0   1
   430   434      0   0   0
   430   479      0   0   0
   430   376      0   0   1
   430   421      0   0   1
   431   381      0   0   0
   431   426      0   0   0
   431   436      0   0   0
   431   481      0   0   0
   431   432      0   0   0
   431   435      0   0  -1
   431   382      0   0   0
   431   427      0   0   0
   431   440      0   0  -1
   431   485      0   0  -1
   432   382      0   0   0
   432   427      0   0   0
   432   437      0   0   0
   432   482      0   0   0
   432   431      0   0   0
   432   433      0   0   0
   432   383      0   0   0
   432   428      0   0   0
   432   436      0   0   0
   432   481      0   0   0
   433   383      0   0   0
   433   428      0   0   0
   433   438      0   0   0
   433   483      0   0   0
   433   432      0   0   0
   433   434      0   0   0
   433   384      0   0   0
   433   429      0   0   0
   433   437      0   0   0
   433   482      0   0   0
   434   384      0   0   0
   434   429      0   0   0
   434   439      0   0   0
   434   484      0   0   0
   434   433      0   0   0
   434   435      0   0   0
   434   385      0   0   0
   434   430      0   0   0
   434   438      0   0   0
   434   483      0   0   0
   435   385      0   0   0
   435   430      0   0   0
   435   440      0   0   0
   435   485      0   0   0
   435   434      0   0   0
   435   431      0   0   1
   435   439      0   0   0
   435   484      0   0   0
   435   381      0   0   1
   435   426      0   0   1
   436   386      0   0   0
   436   431      0   0   0
   436   441      0   0   0
   436   486      0   0   0
   436   437      0   0   0
   436   440      0   0  -1
   436   387      0   0   0
   436   432      0   0   0
   436   445      0   0  -1
   436   490      0   0  -1
   437   387      0   0   0
   437   432      0   0   0
   437   442      0   0   0
   437   487      0   0   0
   437   436      0   0   0
   437   438      0   0   0
   437   388      0   0   0
   437   433      0   0   0
   437   441      0   0   0
   437   486      0   0   0
   438   388      0   0   0
   438   433      0   0   0
   438   443      0   0   0
   438   488      0   0   0
   438   437      0   0   0
   438   439      0   0   0
   438   389      0   0   0
   438   434      0   0   0
   438   442      0   0   0
   438   487      0   0   0
   439   389      0   0   0
   439   434      0   0   0
   439   444      0   0   0
   439   489      0   0   0
   439   438      0   0   0
   439   440      0   0   0
   439   390      0   0   0
   439   435      0   0   0
   439   443      0   0   0
   439   488      0   0   0
   440   390      0   0   0
   440   435      0   0   0
   440   445      0   0   0
   440   490      0   0   0
   440   439      0   0   0
   440   436      0   0   1
   440   444      0   0   0
   440   489      0   0   0
   440   386      0   0   1
   440   431      0   0   1
   441   391      0   0   0
   441   436      0   0   0
   441   446      0   0   0
   441   491      0   0   0
   441   442      0   0   0
   441   445      0   0  -1
   441   392      0   0   0
   441   437      0   0   0
   441   450      0   0  -1
   441   495      0   0  -1
   442   392      0   0   0
   442   437      0   0   0
   442   447      0   0   0
   442   492      0   0   0
   442   441      0   0   0
   442   443      0   0   0
   442   393      0   0   0
   442   438      0   0   0
   442   446      0   0   0
   442   491      0   0   0
   443   393      0   0   0
   443   438      0   0   0
   443   448      0   0   0
   443   493      0   0   0
   443   442      0   0   0
   443   444      0   0   0
   443   394      0   0   0
   443   439      0   0   0
   443   447      0   0   0
   443   492      0   0   0
   444   394      0   0   0
   444   439      0   0   0
   444   449      0   0   0
   444   494      0   0   0
   444   443      0   0   0
   444   445      0   0   0
   444   395      0   0   0
   444   440      0   0   0
   444   448      0   0   0
   444   493      0   0   0
   445   395      0   0   0
   445   440      0   0   0
   445   450      0   0   0
   445   495      0   0   0
   445   444      0   0   0
   445   441      0   0   1
   445   449      0   0   0
   445   494      0   0   0
   445   391      0   0   1
   445   436      0   0   1
   446   396      0   0   0
   446   441      0   0   0
   446   496      0   0   0
   446   401      0   1   0
   446   447      0   0   0
   446   450      0   0  -1
   446   397      0   0   0
   446   442      0   0   0
   446   500      0   0  -1
   446   405      0   1  -1
   447   397      0   0   0
   447   442      0   0   0
   447   497      0   0   0
   447   402      0   1   0
   447   446      0   0   0
   447   448      0   0   0
   447   398      0   0   0
   447   443      0   0   0
   447   496      0   0   0
   447   401      0   1   0
   448   398      0   0   0
   448   443      0   0   0
   448   498      0   0   0
   448   403      0   1   0
   448   447      0   0   0
   448   449      0   0   0
   448   399      0   0   0
   448   444      0   0   0
   448   497      0   0   0
   448   402      0   1   0
   449   399      0   0   0
   449   444      0   0   0
   449   499      0   0   0
   449   404      0   1   0
   449   448      0   0   0
   449   450      0   0   0
   449   400      0   0   0
   449   445      0   0   0
   449   498      0   0   0
   449   403      0   1   0
   450   400      0   0   0
   450   445      0   0   0
   450   500      0   0   0
   450   405      0   1   0
   450   449      0   0   0
   450   446      0   0   1
   450   499      0   0   0
   450   396      0   0   1
   450   441      0   0   1
   450   404      0   1   0
   451   401      0   0   0
   451   456      0   0   0
   451     1      1   0   0
   451   496      0  -1   0
   451   452      0   0   0
   451   455      0   0  -1
   451   402      0   0   0
   451   460      0   0  -1
   451     5      1   0  -1
   451   497      0  -1   0
   452   402      0   0   0
   452   457      0   0   0
   452     2      1   0   0
   452   497      0  -1   0
   452   451      0   0   0
   452   453      0   0   0
   452   403      0   0   0
   452   456      0   0   0
   452     1      1   0   0
   452   498      0  -1   0
   453   403      0   0   0
   453   458      0   0   0
   453     3      1   0   0
   453   498      0  -1   0
   453   452      0   0   0
   453   454      0   0   0
   453   404      0   0   0
   453   457      0   0   0
   453     2      1   0   0
   453   499      0  -1   0
   454   404      0   0   0
   454   459      0   0   0
   454     4      1   0   0
   454   499      0  -1   0
   454   453      0   0   0
   454   455      0   0   0
   454   405      0   0   0
   454   458      0   0   0
   454     3      1   0   0
   454   500      0  -1   0
   455   405      0   0   0
   455   460      0   0   0
   455     5      1   0   0
   455   500      0  -1   0
   455   454      0   0   0
   455   451      0   0   1
   455   459      0   0   0
   455   401      0   0   1
   455     4      1   0   0
   455   496      0  -1   1
   456   406      0   0   0
   456   451      0   0   0
   456   461      0   0   0
   456     6      1   0   0
   456   457      0   0   0
   456   460      0   0  -1
   456   407      0   0   0
   456   452      0   0   0
   456   465      0   0  -1
   456    10      1   0  -1
   457   407      0   0   0
   457   452      0   0   0
   457   462      0   0   0
   457     7      1   0   0
   457   456      0   0   0
   457   458      0   0   0
   457   408      0   0   0
   457   453      0   0   0
   457   461      0   0   0
   457     6      1   0   0
   458   408      0   0   0
   458   453      0   0   0
   458   463      0   0   0
   458     8      1   0   0
   458   457      0   0   0
   458   459      0   0   0
   458   409      0   0   0
   458   454      0   0   0
   458   462      0   0   0
   458     7      1   0   0
   459   409      0   0   0
   459   454      0   0   0
   459   464      0   0   0
   459     9      1   0   0
   459   458      0   0   0
   459   460      0   0   0
   459   410      0   0   0
   459   455      0   0   0
   459   463      0   0   0
   459     8      1   0   0
   460   410      0   0   0
   460   455      0   0   0
   460   465      0   0   0
   460    10      1   0   0
   460   459      0   0   0
   460   456      0   0   1
   460   464      0   0   0
   460   406      0   0   1
   460   451      0   0   1
   460     9      1   0   0
   461   411      0   0   0
   461   456      0   0   0
   461   466      0   0   0
   461    11      1   0   0
   461   462      0   0   0
   461   465      0   0  -1
   461   412      0   0   0
   461   457      0   0   0
   461   470      0   0  -1
   461    15      1   0  -1
   462   412      0   0   0
   462   457      0   0   0
   462   467      0   0   0
   462    12      1   0   0
   462   461      0   0   0
   462   463      0   0   0
   462   413      0   0   0
   462   458      0   0   0
   462   466      0   0   0
   462    11      1   0   0
   463   413      0   0   0
   463   458      0   0   0
   463   468      0   0   0
   463    13      1   0   0
   463   462      0   0   0
   463   464      0   0   0
   463   414      0   0   0
   463   459      0   0   0
   463   467      0   0   0
   463    12      1   0   0
   464   414      0   0   0
   464   459      0   0   0
   464   469      0   0   0
   464    14      1   0   0
   464   463      0   0   0
   464   465      0   0   0
   464   415      0   0   0
   464   460      0   0   0
   464   468      0   0   0
   464    13      1   0   0
   465   415      0   0   0
   465   460      0   0   0
   465   470      0   0   0
   465    15      1   0   0
   465   464      0   0   0
   465   461      0   0   1
   465   469      0   0   0
   465   411      0   0   1
   465   456      0   0   1
   465    14      1   0   0
   466   416      0   0   0
   466   461      0   0   0
   466   471      0   0   0
   466    16      1   0   0
   466   467      0   0   0
   466   470      0   0  -1
   466   417      0   0   0
   466   462      0   0   0
   466   475      0   0  -1
   466    20      1   0  -1
   467   417      0   0   0
   467   462      0   0   0
   467   472      0   0   0
   467    17      1   0   0
   467   466      0   0   0
   467   468      0   0   0
   467   418      0   0   0
   467   463      0   0   0
   467   471      0   0   0
   467    16      1   0   0
   468   418      0   0   0
   468   463      0   0   0
   468   473      0   0   0
   468    18      1   0   0
   468   467      0   0   0
   468   469      0   0   0
   468   419      0   0   0
   468   464      0   0   0
   468   472      0   0   0
   468    17      1   0   0
   469   419      0   0   0
   469   464      0   0   0
   469   474      0   0   0
   469    19      1   0   0
   469   468      0   0   0
   469   470      0   0   0
   469   420      0   0   0
   469   465      0   0   0
   469   473      0   0   0
   469    18      1   0   0
   470   420      0   0   0
   470   465      0   0   0
   470   475      0   0   0
   470    20      1   0   0
   470   469      0   0   0
   470   466      0   0   1
   470   474      0   0   0
   470   416      0   0   1
   470   461      0   0   1
   470    19      1   0   0
   471   421      0   0   0
   471   466      0   0   0
   471   476      0   0   0
   471    21      1   0   0
   471   472      0   0   0
   471   475      0   0  -1
   471   422      0   0   0
   471   467      0   0   0
   471   480      0   0  -1
   471    25      1   0  -1
   472   422      0   0   0
   472   467      0   0   0
   472   477      0   0   0
   472    22      1   0   0
   472   471      0   0   0
   472   473      0   0   0
   472   423      0   0   0
   472   468      0   0   0
   472   476      0   0   0
   472    21      1   0   0
   473   423      0   0   0
   473   468      0   0   0
   473   478      0   0   0
   473    23      1   0   0
   473   472      0   0   0
   473   474      0   0   0
   473   424      0   0   0
   473   469      0   0   0
   473   477      0   0   0
   473    22      1   0   0
   474   424      0   0   0
   474   469      0   0   0
   474   479      0   0   0
   474    24      1   0   0
   474   473      0   0   0
   474   475      0   0   0
   474   425      0   0   0
   474   470      0   0   0
   474   478      0   0   0
   474    23      1   0   0
   475   425      0   0   0
   475   470      0   0   0
   475   480      0   0   0
   475    25      1   0   0
   475   474      0   0   0
   475   471      0   0   1
   475   479      0   0   0
   475   421      0   0   1
   475   466      0   0   1
   475    24      1   0   0
   476   426      0   0   0
   476   471      0   0   0
   476   481      0   0   0
   476    26      1   0   0
   476   477      0   0   0
   476   480      0   0  -1
   476   427      0   0   0
   476   472      0   0   0
   476   485      0   0  -1
   476    30      1   0  -1
   477   427      0   0   0
   477   472      0   0   0
   477   482      0   0   0
   477    27      1   0   0
   477   476      0   0   0
   477   478      0   0   0
   477   428      0   0   0
   477   473      0   0   0
   477   481      0   0   0
   477    26      1   0   0
   478   428      0   0   0
   478   473      0   0   0
   478   483      0   0   0
   478    28      1   0   0
   478   477      0   0   0
   478   479      0   0   0
   478   429      0   0   0
   478   474      0   0   0
   478   482      0   0   0
   478    27      1   0   0
   479   429      0   0   0
   479   474      0   0   0
   479   484      0   0   0
   479    29      1   0   0
   479   478      0   0   0
   479   480      0   0   0
   479   430      0   0   0
   479   475      0   0   0
   479   483      0   0   0
   479    28      1   0   0
   480   430      0   0   0
   480   475      0   0   0
   480   485      0   0   0
   480    30      1   0   0
   480   479      0   0   0
   480   476      0   0   1
   480   484      0   0   0
   480   426      0   0   1
   480   471      0   0   1
   480    29      1   0   0
   481   431      0   0   0
   481   476      0   0   0
   481   486      0   0   0
   481    31      1   0   0
   481   482      0   0   0
   481   485      0   0  -1
   481   432      0   0   0
   481   477      0   0   0
   481   490      0   0  -1
   481    35      1   0  -1
   482   432      0   0   0
   482   477      0   0   0
   482   487      0   0   0
   482    32      1   0   0
   482   481      0   0   0
   482   483      0   0   0
   482   433      0   0   0
   482   478      0   0   0
   482   486      0   0   0
   482    31      1   0   0
   483   433      0   0   0
   483   478      0   0   0
   483   488      0   0   0
   483    33      1   0   0
   483   482      0   0   0
   483   484      0   0   0
   483   434      0   0   0
   483   479      0   0   0
   483   487      0   0   0
   483    32      1   0   0
   484   434      0   0   0
   484   479      0   0   0
   484   489      0   0   0
   484    34      1   0   0
   484   483      0   0   0
   484   485      0   0   0
   484   435      0   0   0
   484   480      0   0   0
   484   488      0   0   0
   484    33      1   0   0
   485   435      0   0   0
   485   480      0   0   0
   485   490      0   0   0
   485    35      1   0   0
   485   484      0   0   0
   485   481      0   0   1
   485   489      0   0   0
   485   431      0   0   1
   485   476      0   0   1
   485    34      1   0   0
   486   436      0   0   0
   486   481      0   0   0
   486   491      0   0   0
   486    36      1   0   0
   486   487      0   0   0
   486   490      0   0  -1
   486   437      0   0   0
   486   482      0   0   0
   486   495      0   0  -1
   486    40      1   0  -1
   487   437      0   0   0
   487   482      0   0   0
   487   492      0   0   0
   487    37      1   0   0
   487   486      0   0   0
   487   488      0   0   0
   487   438      0   0   0
   487   483      0   0   0
   487   491      0   0   0
   487    36      1   0   0
   488   438      0   0   0
   488   483      0   0   0
   488   493      0   0   0
   488    38      1   0   0
   488   487      0   0   0
   488   489      0   0   0
   488   439      0   0   0
   488   484      0   0   0
   488   492      0   0   0
   488    37      1   0   0
   489   439      0   0   0
   489   484      0   0   0
   489   494      0   0   0
   489    39      1   0   0
   489   488      0   0   0
   489   490      0   0   0
   489   440      0   0   0
   489   485      0   0   0
   489   493      0   0   0
   489    38      1   0   0
   490   440      0   0   0
   490   485      0   0   0
   490   495      0   0   0
   490    40      1   0   0
   490   489      0   0   0
   490   486      0   0   1
   490   494      0   0   0
   490   436      0   0   1
   490   481      0   0   1
   490    39      1   0   0
   491   441      0   0   0
   491   486      0   0   0
   491   496      0   0   0
   491    41      1   0   0
   491   492      0   0   0
   491   495      0   0  -1
   491   442      0   0   0
   491   487      0   0   0
   491   500      0   0  -1
   491    45      1   0  -1
   492   442      0   0   0
   492   487      0   0   0
   492   497      0   0   0
   492    42      1   0   0
   492   491      0   0   0
   492   493      0   0   0
   492   443      0   0   0
   492   488      0   0   0
   492   496      0   0   0
   492    41      1   0   0
   493   443      0   0   0
   493   488      0   0   0
   493   498      0   0   0
   493    43      1   0   0
   493   492      0   0   0
   493   494      0   0   0
   493   444      0   0   0
   493   489      0   0   0
   493   497      0   0   0
   493    42      1   0   0
   494   444      0   0   0
   494   489      0   0   0
   494   499      0   0   0
   494    44      1   0   0
   494   493      0   0   0
   494   495      0   0   0
   494   445      0   0   0
   494   490      0   0   0
   494   498      0   0   0
   494    43      1   0   0
   495   445      0   0   0
   495   490      0   0   0
   495   500      0   0   0
   495    45      1   0   0
   495   494      0   0   0
   495   491      0   0   1
   495   499      0   0   0
   495   441      0   0   1
   495   486      0   0   1
   495    44      1   0   0
   496   446      0   0   0
   496   491      0   0   0
   496    46      1   0   0
   496   451      0   1   0
   496   497      0   0   0
   496   500      0   0  -1
   496   447      0   0   0
   496   492      0   0   0
   496    50      1   0  -1
   496   455      0   1  -1
   497   447      0   0   0
   497   492      0   0   0
   497    47      1   0   0
   497   452      0   1   0
   497   496      0   0   0
   497   498      0   0   0
   497   448      0   0   0
   497   493      0   0   0
   497    46      1   0   0
   497   451      0   1   0
   498   448      0   0   0
   498   493      0   0   0
   498    48      1   0   0
   498   453      0   1   0
   498   497      0   0   0
   498   499      0   0   0
   498   449      0   0   0
   498   494      0   0   0
   498    47      1   0   0
   498   452      0   1   0
   499   449      0   0   0
   499   494      0   0   0
   499    49      1   0   0
   499   454      0   1   0
   499   498      0   0   0
   499   500      0   0   0
   499   450      0   0   0
   499   495      0   0   0
   499    48      1   0   0
   499   453      0   1   0
   500   450      0   0   0
   500   495      0   0   0
   500    50      1   0   0
   500   455      0   1   0
   500   499      0   0   0
   500   496      0   0   1
   500   446      0   0   1
   500   491      0   0   1
   500    49      1   0   0
   500   454      0   1   0
end nnkpts

begin exclude_bands
  10
   1
   2
   3
   4
   5
   6
   7
   8
   9
  10
end exclude_bands
