 
             +---------------------------------------------------+
             |                                                   |
             |                   WANNIER90                       |
             |                                                   |
             +---------------------------------------------------+
             |                                                   |
             |        Welcome to the Maximally-Localized         |
             |        Generalized Wannier Functions code         |
             |            http://www.wannier.org                 |
             |                                                   |
             |                                                   |
             |  Wannier90 Developer Group:                       |
             |    Giovanni Pizzi    (EPFL)                       |
             |    Valerio Vitale    (Cambridge)                  |
             |    David Vanderbilt  (Rutgers University)         |
             |    Nicola Marzari    (EPFL)                       |
             |    Ivo Souza         (Universidad del Pais Vasco) |
             |    Arash A. Mostofi  (Imperial College London)    |
             |    Jonathan R. Yates (University of Oxford)       |
             |                                                   |
             |  For the full list of Wannier90 3.x authors,      |
             |  please check the code documentation and the      |
             |  README on the GitHub page of the code            |
             |                                                   |
             |                                                   |
             |  Please cite                                      |
             |                                                   |
             |  [ref] "Wannier90 as a community code:            |
             |        new features and applications",            |
             |        G. Pizzi et al., J. Phys. Cond. Matt. 32,  |
             |        165902 (2020).                             |
             |        http://doi.org/10.1088/1361-648X/ab51ff    |
             |                                                   |
             |  in any publications arising from the use of      |
             |  this code. For the method please cite            |
             |                                                   |
             |  [ref] "Maximally Localized Generalised Wannier   |
             |         Functions for Composite Energy Bands"     |
             |         N. Marzari and D. Vanderbilt              |
             |         Phys. Rev. B 56 12847 (1997)              |
             |                                                   |
             |  [ref] "Maximally Localized Wannier Functions     |
             |         for Entangled Energy Bands"               |
             |         I. Souza, N. Marzari and D. Vanderbilt    |
             |         Phys. Rev. B 65 035109 (2001)             |
             |                                                   |
             |                                                   |
             | Copyright (c) 1996-2020                           |
             |        The Wannier90 Developer Group and          |
             |        individual contributors                    |
             |                                                   |
             |      Release: 3.1.0        5th March    2020      |
             |                                                   |
             | This program is free software; you can            |
             | redistribute it and/or modify it under the terms  |
             | of the GNU General Public License as published by |
             | the Free Software Foundation; either version 2 of |
             | the License, or (at your option) any later version|
             |                                                   |
             | This program is distributed in the hope that it   |
             | will be useful, but WITHOUT ANY WARRANTY; without |
             | even the implied warranty of MERCHANTABILITY or   |
             | FITNESS FOR A PARTICULAR PURPOSE. See the GNU     |
             | General Public License for more details.          |
             |                                                   |
             | You should have received a copy of the GNU General|
             | Public License along with this program; if not,   |
             | write to the Free Software Foundation, Inc.,      |
             | 675 Mass Ave, Cambridge, MA 02139, USA.           |
             |                                                   |
             +---------------------------------------------------+
             |    Execution started on 20Feb2024 at 17:06:45     |
             +---------------------------------------------------+
 
 ******************************************************************************
 * -> Using CODATA 2006 constant values                                       *
 *    (http://physics.nist.gov/cuu/Constants/index.html)                      *
 * -> Using Bohr value from CODATA                                            *
 ******************************************************************************
 

 Running in serial (with serial executable)
 
                                    ------
                                    SYSTEM
                                    ------
 
                              Lattice Vectors (Ang)
                    a_1     3.356438   0.000000   0.000000
                    a_2     0.000000   3.356438   0.000000
                    a_3    -1.678219  -1.678219   5.718225
 
                   Unit Cell Volume:      64.41967  (Ang^3)
 
                        Reciprocal-Space Vectors (Ang^-1)
                    b_1     1.871980   0.000000   0.549400
                    b_2     0.000000   1.871980   0.549400
                    b_3     0.000000   0.000000   1.098800
  
 *----------------------------------------------------------------------------*
 |   Site       Fractional Coordinate          Cartesian Coordinate (Ang)     |
 +----------------------------------------------------------------------------+
 | Nb   1   0.49992   0.49992   0.99985   |    0.00000   0.00000   5.71734    |
 | Nb   1   0.74992   0.24992   0.49985   |    1.67822   0.00000   2.85823    |
 | P    1   0.91745   0.91745   0.83489   |    1.67822   1.67822   4.77411    |
 | P    1   0.16745   0.66745   0.33489   |    0.00000   1.67822   1.91500    |
 *----------------------------------------------------------------------------*
                                -----------
                                PROJECTIONS
                                -----------
  
 +----------------------------------------------------------------------------+
 |     Frac. Coord.   l mr  r        z-axis               x-axis          Z/a |
 +----------------------------------------------------------------------------+
 |  0.50  0.50  1.00  2  1  1  0.000  0.000  1.000  1.000  0.000  0.000   1.0 |
 |  0.50  0.50  1.00  2  2  1  0.000  0.000  1.000  1.000  0.000  0.000   1.0 |
 |  0.50  0.50  1.00  2  3  1  0.000  0.000  1.000  1.000  0.000  0.000   1.0 |
 |  0.50  0.50  1.00  2  4  1  0.000  0.000  1.000  1.000  0.000  0.000   1.0 |
 |  0.50  0.50  1.00  2  5  1  0.000  0.000  1.000  1.000  0.000  0.000   1.0 |
 |  0.75  0.25  0.50  2  1  1  0.000  0.000  1.000  1.000  0.000  0.000   1.0 |
 |  0.75  0.25  0.50  2  2  1  0.000  0.000  1.000  1.000  0.000  0.000   1.0 |
 |  0.75  0.25  0.50  2  3  1  0.000  0.000  1.000  1.000  0.000  0.000   1.0 |
 |  0.75  0.25  0.50  2  4  1  0.000  0.000  1.000  1.000  0.000  0.000   1.0 |
 |  0.75  0.25  0.50  2  5  1  0.000  0.000  1.000  1.000  0.000  0.000   1.0 |
 |  0.92  0.92  0.83  1  1  1  0.000  0.000  1.000  1.000  0.000  0.000   1.0 |
 |  0.92  0.92  0.83  1  2  1  0.000  0.000  1.000  1.000  0.000  0.000   1.0 |
 |  0.92  0.92  0.83  1  3  1  0.000  0.000  1.000  1.000  0.000  0.000   1.0 |
 |  0.17  0.67  0.33  1  1  1  0.000  0.000  1.000  1.000  0.000  0.000   1.0 |
 |  0.17  0.67  0.33  1  2  1  0.000  0.000  1.000  1.000  0.000  0.000   1.0 |
 |  0.17  0.67  0.33  1  3  1  0.000  0.000  1.000  1.000  0.000  0.000   1.0 |
 +----------------------------------------------------------------------------+
  
                                ------------
                                K-POINT GRID
                                ------------
  
             Grid size = 10 x 10 x  5      Total points =  500
  
 *----------------------------------------------------------------------------*
 | k-point      Fractional Coordinate        Cartesian Coordinate (Ang^-1)    |
 +----------------------------------------------------------------------------+
 |     1    0.00000   0.00000   0.00000   |    0.00000   0.00000   0.00000    |
 |     2    0.00000   0.00000   0.20000   |    0.00000   0.00000   0.21976    |
 |     3    0.00000   0.00000   0.40000   |    0.00000   0.00000   0.43952    |
 |     4    0.00000   0.00000   0.60000   |    0.00000   0.00000   0.65928    |
 |     5    0.00000   0.00000   0.80000   |    0.00000   0.00000   0.87904    |
 |     6    0.00000   0.10000   0.00000   |    0.00000   0.18720   0.05494    |
 |     7    0.00000   0.10000   0.20000   |    0.00000   0.18720   0.27470    |
 |     8    0.00000   0.10000   0.40000   |    0.00000   0.18720   0.49446    |
 |     9    0.00000   0.10000   0.60000   |    0.00000   0.18720   0.71422    |
 |    10    0.00000   0.10000   0.80000   |    0.00000   0.18720   0.93398    |
 |    11    0.00000   0.20000   0.00000   |    0.00000   0.37440   0.10988    |
 |    12    0.00000   0.20000   0.20000   |    0.00000   0.37440   0.32964    |
 |    13    0.00000   0.20000   0.40000   |    0.00000   0.37440   0.54940    |
 |    14    0.00000   0.20000   0.60000   |    0.00000   0.37440   0.76916    |
 |    15    0.00000   0.20000   0.80000   |    0.00000   0.37440   0.98892    |
 |    16    0.00000   0.30000   0.00000   |    0.00000   0.56159   0.16482    |
 |    17    0.00000   0.30000   0.20000   |    0.00000   0.56159   0.38458    |
 |    18    0.00000   0.30000   0.40000   |    0.00000   0.56159   0.60434    |
 |    19    0.00000   0.30000   0.60000   |    0.00000   0.56159   0.82410    |
 |    20    0.00000   0.30000   0.80000   |    0.00000   0.56159   1.04386    |
 |    21    0.00000   0.40000   0.00000   |    0.00000   0.74879   0.21976    |
 |    22    0.00000   0.40000   0.20000   |    0.00000   0.74879   0.43952    |
 |    23    0.00000   0.40000   0.40000   |    0.00000   0.74879   0.65928    |
 |    24    0.00000   0.40000   0.60000   |    0.00000   0.74879   0.87904    |
 |    25    0.00000   0.40000   0.80000   |    0.00000   0.74879   1.09880    |
 |    26    0.00000   0.50000   0.00000   |    0.00000   0.93599   0.27470    |
 |    27    0.00000   0.50000   0.20000   |    0.00000   0.93599   0.49446    |
 |    28    0.00000   0.50000   0.40000   |    0.00000   0.93599   0.71422    |
 |    29    0.00000   0.50000   0.60000   |    0.00000   0.93599   0.93398    |
 |    30    0.00000   0.50000   0.80000   |    0.00000   0.93599   1.15374    |
 |    31    0.00000   0.60000   0.00000   |    0.00000   1.12319   0.32964    |
 |    32    0.00000   0.60000   0.20000   |    0.00000   1.12319   0.54940    |
 |    33    0.00000   0.60000   0.40000   |    0.00000   1.12319   0.76916    |
 |    34    0.00000   0.60000   0.60000   |    0.00000   1.12319   0.98892    |
 |    35    0.00000   0.60000   0.80000   |    0.00000   1.12319   1.20868    |
 |    36    0.00000   0.70000   0.00000   |    0.00000   1.31039   0.38458    |
 |    37    0.00000   0.70000   0.20000   |    0.00000   1.31039   0.60434    |
 |    38    0.00000   0.70000   0.40000   |    0.00000   1.31039   0.82410    |
 |    39    0.00000   0.70000   0.60000   |    0.00000   1.31039   1.04386    |
 |    40    0.00000   0.70000   0.80000   |    0.00000   1.31039   1.26362    |
 |    41    0.00000   0.80000   0.00000   |    0.00000   1.49758   0.43952    |
 |    42    0.00000   0.80000   0.20000   |    0.00000   1.49758   0.65928    |
 |    43    0.00000   0.80000   0.40000   |    0.00000   1.49758   0.87904    |
 |    44    0.00000   0.80000   0.60000   |    0.00000   1.49758   1.09880    |
 |    45    0.00000   0.80000   0.80000   |    0.00000   1.49758   1.31856    |
 |    46    0.00000   0.90000   0.00000   |    0.00000   1.68478   0.49446    |
 |    47    0.00000   0.90000   0.20000   |    0.00000   1.68478   0.71422    |
 |    48    0.00000   0.90000   0.40000   |    0.00000   1.68478   0.93398    |
 |    49    0.00000   0.90000   0.60000   |    0.00000   1.68478   1.15374    |
 |    50    0.00000   0.90000   0.80000   |    0.00000   1.68478   1.37350    |
 |    51    0.10000   0.00000   0.00000   |    0.18720   0.00000   0.05494    |
 |    52    0.10000   0.00000   0.20000   |    0.18720   0.00000   0.27470    |
 |    53    0.10000   0.00000   0.40000   |    0.18720   0.00000   0.49446    |
 |    54    0.10000   0.00000   0.60000   |    0.18720   0.00000   0.71422    |
 |    55    0.10000   0.00000   0.80000   |    0.18720   0.00000   0.93398    |
 |    56    0.10000   0.10000   0.00000   |    0.18720   0.18720   0.10988    |
 |    57    0.10000   0.10000   0.20000   |    0.18720   0.18720   0.32964    |
 |    58    0.10000   0.10000   0.40000   |    0.18720   0.18720   0.54940    |
 |    59    0.10000   0.10000   0.60000   |    0.18720   0.18720   0.76916    |
 |    60    0.10000   0.10000   0.80000   |    0.18720   0.18720   0.98892    |
 |    61    0.10000   0.20000   0.00000   |    0.18720   0.37440   0.16482    |
 |    62    0.10000   0.20000   0.20000   |    0.18720   0.37440   0.38458    |
 |    63    0.10000   0.20000   0.40000   |    0.18720   0.37440   0.60434    |
 |    64    0.10000   0.20000   0.60000   |    0.18720   0.37440   0.82410    |
 |    65    0.10000   0.20000   0.80000   |    0.18720   0.37440   1.04386    |
 |    66    0.10000   0.30000   0.00000   |    0.18720   0.56159   0.21976    |
 |    67    0.10000   0.30000   0.20000   |    0.18720   0.56159   0.43952    |
 |    68    0.10000   0.30000   0.40000   |    0.18720   0.56159   0.65928    |
 |    69    0.10000   0.30000   0.60000   |    0.18720   0.56159   0.87904    |
 |    70    0.10000   0.30000   0.80000   |    0.18720   0.56159   1.09880    |
 |    71    0.10000   0.40000   0.00000   |    0.18720   0.74879   0.27470    |
 |    72    0.10000   0.40000   0.20000   |    0.18720   0.74879   0.49446    |
 |    73    0.10000   0.40000   0.40000   |    0.18720   0.74879   0.71422    |
 |    74    0.10000   0.40000   0.60000   |    0.18720   0.74879   0.93398    |
 |    75    0.10000   0.40000   0.80000   |    0.18720   0.74879   1.15374    |
 |    76    0.10000   0.50000   0.00000   |    0.18720   0.93599   0.32964    |
 |    77    0.10000   0.50000   0.20000   |    0.18720   0.93599   0.54940    |
 |    78    0.10000   0.50000   0.40000   |    0.18720   0.93599   0.76916    |
 |    79    0.10000   0.50000   0.60000   |    0.18720   0.93599   0.98892    |
 |    80    0.10000   0.50000   0.80000   |    0.18720   0.93599   1.20868    |
 |    81    0.10000   0.60000   0.00000   |    0.18720   1.12319   0.38458    |
 |    82    0.10000   0.60000   0.20000   |    0.18720   1.12319   0.60434    |
 |    83    0.10000   0.60000   0.40000   |    0.18720   1.12319   0.82410    |
 |    84    0.10000   0.60000   0.60000   |    0.18720   1.12319   1.04386    |
 |    85    0.10000   0.60000   0.80000   |    0.18720   1.12319   1.26362    |
 |    86    0.10000   0.70000   0.00000   |    0.18720   1.31039   0.43952    |
 |    87    0.10000   0.70000   0.20000   |    0.18720   1.31039   0.65928    |
 |    88    0.10000   0.70000   0.40000   |    0.18720   1.31039   0.87904    |
 |    89    0.10000   0.70000   0.60000   |    0.18720   1.31039   1.09880    |
 |    90    0.10000   0.70000   0.80000   |    0.18720   1.31039   1.31856    |
 |    91    0.10000   0.80000   0.00000   |    0.18720   1.49758   0.49446    |
 |    92    0.10000   0.80000   0.20000   |    0.18720   1.49758   0.71422    |
 |    93    0.10000   0.80000   0.40000   |    0.18720   1.49758   0.93398    |
 |    94    0.10000   0.80000   0.60000   |    0.18720   1.49758   1.15374    |
 |    95    0.10000   0.80000   0.80000   |    0.18720   1.49758   1.37350    |
 |    96    0.10000   0.90000   0.00000   |    0.18720   1.68478   0.54940    |
 |    97    0.10000   0.90000   0.20000   |    0.18720   1.68478   0.76916    |
 |    98    0.10000   0.90000   0.40000   |    0.18720   1.68478   0.98892    |
 |    99    0.10000   0.90000   0.60000   |    0.18720   1.68478   1.20868    |
 |   100    0.10000   0.90000   0.80000   |    0.18720   1.68478   1.42844    |
 |   101    0.20000   0.00000   0.00000   |    0.37440   0.00000   0.10988    |
 |   102    0.20000   0.00000   0.20000   |    0.37440   0.00000   0.32964    |
 |   103    0.20000   0.00000   0.40000   |    0.37440   0.00000   0.54940    |
 |   104    0.20000   0.00000   0.60000   |    0.37440   0.00000   0.76916    |
 |   105    0.20000   0.00000   0.80000   |    0.37440   0.00000   0.98892    |
 |   106    0.20000   0.10000   0.00000   |    0.37440   0.18720   0.16482    |
 |   107    0.20000   0.10000   0.20000   |    0.37440   0.18720   0.38458    |
 |   108    0.20000   0.10000   0.40000   |    0.37440   0.18720   0.60434    |
 |   109    0.20000   0.10000   0.60000   |    0.37440   0.18720   0.82410    |
 |   110    0.20000   0.10000   0.80000   |    0.37440   0.18720   1.04386    |
 |   111    0.20000   0.20000   0.00000   |    0.37440   0.37440   0.21976    |
 |   112    0.20000   0.20000   0.20000   |    0.37440   0.37440   0.43952    |
 |   113    0.20000   0.20000   0.40000   |    0.37440   0.37440   0.65928    |
 |   114    0.20000   0.20000   0.60000   |    0.37440   0.37440   0.87904    |
 |   115    0.20000   0.20000   0.80000   |    0.37440   0.37440   1.09880    |
 |   116    0.20000   0.30000   0.00000   |    0.37440   0.56159   0.27470    |
 |   117    0.20000   0.30000   0.20000   |    0.37440   0.56159   0.49446    |
 |   118    0.20000   0.30000   0.40000   |    0.37440   0.56159   0.71422    |
 |   119    0.20000   0.30000   0.60000   |    0.37440   0.56159   0.93398    |
 |   120    0.20000   0.30000   0.80000   |    0.37440   0.56159   1.15374    |
 |   121    0.20000   0.40000   0.00000   |    0.37440   0.74879   0.32964    |
 |   122    0.20000   0.40000   0.20000   |    0.37440   0.74879   0.54940    |
 |   123    0.20000   0.40000   0.40000   |    0.37440   0.74879   0.76916    |
 |   124    0.20000   0.40000   0.60000   |    0.37440   0.74879   0.98892    |
 |   125    0.20000   0.40000   0.80000   |    0.37440   0.74879   1.20868    |
 |   126    0.20000   0.50000   0.00000   |    0.37440   0.93599   0.38458    |
 |   127    0.20000   0.50000   0.20000   |    0.37440   0.93599   0.60434    |
 |   128    0.20000   0.50000   0.40000   |    0.37440   0.93599   0.82410    |
 |   129    0.20000   0.50000   0.60000   |    0.37440   0.93599   1.04386    |
 |   130    0.20000   0.50000   0.80000   |    0.37440   0.93599   1.26362    |
 |   131    0.20000   0.60000   0.00000   |    0.37440   1.12319   0.43952    |
 |   132    0.20000   0.60000   0.20000   |    0.37440   1.12319   0.65928    |
 |   133    0.20000   0.60000   0.40000   |    0.37440   1.12319   0.87904    |
 |   134    0.20000   0.60000   0.60000   |    0.37440   1.12319   1.09880    |
 |   135    0.20000   0.60000   0.80000   |    0.37440   1.12319   1.31856    |
 |   136    0.20000   0.70000   0.00000   |    0.37440   1.31039   0.49446    |
 |   137    0.20000   0.70000   0.20000   |    0.37440   1.31039   0.71422    |
 |   138    0.20000   0.70000   0.40000   |    0.37440   1.31039   0.93398    |
 |   139    0.20000   0.70000   0.60000   |    0.37440   1.31039   1.15374    |
 |   140    0.20000   0.70000   0.80000   |    0.37440   1.31039   1.37350    |
 |   141    0.20000   0.80000   0.00000   |    0.37440   1.49758   0.54940    |
 |   142    0.20000   0.80000   0.20000   |    0.37440   1.49758   0.76916    |
 |   143    0.20000   0.80000   0.40000   |    0.37440   1.49758   0.98892    |
 |   144    0.20000   0.80000   0.60000   |    0.37440   1.49758   1.20868    |
 |   145    0.20000   0.80000   0.80000   |    0.37440   1.49758   1.42844    |
 |   146    0.20000   0.90000   0.00000   |    0.37440   1.68478   0.60434    |
 |   147    0.20000   0.90000   0.20000   |    0.37440   1.68478   0.82410    |
 |   148    0.20000   0.90000   0.40000   |    0.37440   1.68478   1.04386    |
 |   149    0.20000   0.90000   0.60000   |    0.37440   1.68478   1.26362    |
 |   150    0.20000   0.90000   0.80000   |    0.37440   1.68478   1.48338    |
 |   151    0.30000   0.00000   0.00000   |    0.56159   0.00000   0.16482    |
 |   152    0.30000   0.00000   0.20000   |    0.56159   0.00000   0.38458    |
 |   153    0.30000   0.00000   0.40000   |    0.56159   0.00000   0.60434    |
 |   154    0.30000   0.00000   0.60000   |    0.56159   0.00000   0.82410    |
 |   155    0.30000   0.00000   0.80000   |    0.56159   0.00000   1.04386    |
 |   156    0.30000   0.10000   0.00000   |    0.56159   0.18720   0.21976    |
 |   157    0.30000   0.10000   0.20000   |    0.56159   0.18720   0.43952    |
 |   158    0.30000   0.10000   0.40000   |    0.56159   0.18720   0.65928    |
 |   159    0.30000   0.10000   0.60000   |    0.56159   0.18720   0.87904    |
 |   160    0.30000   0.10000   0.80000   |    0.56159   0.18720   1.09880    |
 |   161    0.30000   0.20000   0.00000   |    0.56159   0.37440   0.27470    |
 |   162    0.30000   0.20000   0.20000   |    0.56159   0.37440   0.49446    |
 |   163    0.30000   0.20000   0.40000   |    0.56159   0.37440   0.71422    |
 |   164    0.30000   0.20000   0.60000   |    0.56159   0.37440   0.93398    |
 |   165    0.30000   0.20000   0.80000   |    0.56159   0.37440   1.15374    |
 |   166    0.30000   0.30000   0.00000   |    0.56159   0.56159   0.32964    |
 |   167    0.30000   0.30000   0.20000   |    0.56159   0.56159   0.54940    |
 |   168    0.30000   0.30000   0.40000   |    0.56159   0.56159   0.76916    |
 |   169    0.30000   0.30000   0.60000   |    0.56159   0.56159   0.98892    |
 |   170    0.30000   0.30000   0.80000   |    0.56159   0.56159   1.20868    |
 |   171    0.30000   0.40000   0.00000   |    0.56159   0.74879   0.38458    |
 |   172    0.30000   0.40000   0.20000   |    0.56159   0.74879   0.60434    |
 |   173    0.30000   0.40000   0.40000   |    0.56159   0.74879   0.82410    |
 |   174    0.30000   0.40000   0.60000   |    0.56159   0.74879   1.04386    |
 |   175    0.30000   0.40000   0.80000   |    0.56159   0.74879   1.26362    |
 |   176    0.30000   0.50000   0.00000   |    0.56159   0.93599   0.43952    |
 |   177    0.30000   0.50000   0.20000   |    0.56159   0.93599   0.65928    |
 |   178    0.30000   0.50000   0.40000   |    0.56159   0.93599   0.87904    |
 |   179    0.30000   0.50000   0.60000   |    0.56159   0.93599   1.09880    |
 |   180    0.30000   0.50000   0.80000   |    0.56159   0.93599   1.31856    |
 |   181    0.30000   0.60000   0.00000   |    0.56159   1.12319   0.49446    |
 |   182    0.30000   0.60000   0.20000   |    0.56159   1.12319   0.71422    |
 |   183    0.30000   0.60000   0.40000   |    0.56159   1.12319   0.93398    |
 |   184    0.30000   0.60000   0.60000   |    0.56159   1.12319   1.15374    |
 |   185    0.30000   0.60000   0.80000   |    0.56159   1.12319   1.37350    |
 |   186    0.30000   0.70000   0.00000   |    0.56159   1.31039   0.54940    |
 |   187    0.30000   0.70000   0.20000   |    0.56159   1.31039   0.76916    |
 |   188    0.30000   0.70000   0.40000   |    0.56159   1.31039   0.98892    |
 |   189    0.30000   0.70000   0.60000   |    0.56159   1.31039   1.20868    |
 |   190    0.30000   0.70000   0.80000   |    0.56159   1.31039   1.42844    |
 |   191    0.30000   0.80000   0.00000   |    0.56159   1.49758   0.60434    |
 |   192    0.30000   0.80000   0.20000   |    0.56159   1.49758   0.82410    |
 |   193    0.30000   0.80000   0.40000   |    0.56159   1.49758   1.04386    |
 |   194    0.30000   0.80000   0.60000   |    0.56159   1.49758   1.26362    |
 |   195    0.30000   0.80000   0.80000   |    0.56159   1.49758   1.48338    |
 |   196    0.30000   0.90000   0.00000   |    0.56159   1.68478   0.65928    |
 |   197    0.30000   0.90000   0.20000   |    0.56159   1.68478   0.87904    |
 |   198    0.30000   0.90000   0.40000   |    0.56159   1.68478   1.09880    |
 |   199    0.30000   0.90000   0.60000   |    0.56159   1.68478   1.31856    |
 |   200    0.30000   0.90000   0.80000   |    0.56159   1.68478   1.53832    |
 |   201    0.40000   0.00000   0.00000   |    0.74879   0.00000   0.21976    |
 |   202    0.40000   0.00000   0.20000   |    0.74879   0.00000   0.43952    |
 |   203    0.40000   0.00000   0.40000   |    0.74879   0.00000   0.65928    |
 |   204    0.40000   0.00000   0.60000   |    0.74879   0.00000   0.87904    |
 |   205    0.40000   0.00000   0.80000   |    0.74879   0.00000   1.09880    |
 |   206    0.40000   0.10000   0.00000   |    0.74879   0.18720   0.27470    |
 |   207    0.40000   0.10000   0.20000   |    0.74879   0.18720   0.49446    |
 |   208    0.40000   0.10000   0.40000   |    0.74879   0.18720   0.71422    |
 |   209    0.40000   0.10000   0.60000   |    0.74879   0.18720   0.93398    |
 |   210    0.40000   0.10000   0.80000   |    0.74879   0.18720   1.15374    |
 |   211    0.40000   0.20000   0.00000   |    0.74879   0.37440   0.32964    |
 |   212    0.40000   0.20000   0.20000   |    0.74879   0.37440   0.54940    |
 |   213    0.40000   0.20000   0.40000   |    0.74879   0.37440   0.76916    |
 |   214    0.40000   0.20000   0.60000   |    0.74879   0.37440   0.98892    |
 |   215    0.40000   0.20000   0.80000   |    0.74879   0.37440   1.20868    |
 |   216    0.40000   0.30000   0.00000   |    0.74879   0.56159   0.38458    |
 |   217    0.40000   0.30000   0.20000   |    0.74879   0.56159   0.60434    |
 |   218    0.40000   0.30000   0.40000   |    0.74879   0.56159   0.82410    |
 |   219    0.40000   0.30000   0.60000   |    0.74879   0.56159   1.04386    |
 |   220    0.40000   0.30000   0.80000   |    0.74879   0.56159   1.26362    |
 |   221    0.40000   0.40000   0.00000   |    0.74879   0.74879   0.43952    |
 |   222    0.40000   0.40000   0.20000   |    0.74879   0.74879   0.65928    |
 |   223    0.40000   0.40000   0.40000   |    0.74879   0.74879   0.87904    |
 |   224    0.40000   0.40000   0.60000   |    0.74879   0.74879   1.09880    |
 |   225    0.40000   0.40000   0.80000   |    0.74879   0.74879   1.31856    |
 |   226    0.40000   0.50000   0.00000   |    0.74879   0.93599   0.49446    |
 |   227    0.40000   0.50000   0.20000   |    0.74879   0.93599   0.71422    |
 |   228    0.40000   0.50000   0.40000   |    0.74879   0.93599   0.93398    |
 |   229    0.40000   0.50000   0.60000   |    0.74879   0.93599   1.15374    |
 |   230    0.40000   0.50000   0.80000   |    0.74879   0.93599   1.37350    |
 |   231    0.40000   0.60000   0.00000   |    0.74879   1.12319   0.54940    |
 |   232    0.40000   0.60000   0.20000   |    0.74879   1.12319   0.76916    |
 |   233    0.40000   0.60000   0.40000   |    0.74879   1.12319   0.98892    |
 |   234    0.40000   0.60000   0.60000   |    0.74879   1.12319   1.20868    |
 |   235    0.40000   0.60000   0.80000   |    0.74879   1.12319   1.42844    |
 |   236    0.40000   0.70000   0.00000   |    0.74879   1.31039   0.60434    |
 |   237    0.40000   0.70000   0.20000   |    0.74879   1.31039   0.82410    |
 |   238    0.40000   0.70000   0.40000   |    0.74879   1.31039   1.04386    |
 |   239    0.40000   0.70000   0.60000   |    0.74879   1.31039   1.26362    |
 |   240    0.40000   0.70000   0.80000   |    0.74879   1.31039   1.48338    |
 |   241    0.40000   0.80000   0.00000   |    0.74879   1.49758   0.65928    |
 |   242    0.40000   0.80000   0.20000   |    0.74879   1.49758   0.87904    |
 |   243    0.40000   0.80000   0.40000   |    0.74879   1.49758   1.09880    |
 |   244    0.40000   0.80000   0.60000   |    0.74879   1.49758   1.31856    |
 |   245    0.40000   0.80000   0.80000   |    0.74879   1.49758   1.53832    |
 |   246    0.40000   0.90000   0.00000   |    0.74879   1.68478   0.71422    |
 |   247    0.40000   0.90000   0.20000   |    0.74879   1.68478   0.93398    |
 |   248    0.40000   0.90000   0.40000   |    0.74879   1.68478   1.15374    |
 |   249    0.40000   0.90000   0.60000   |    0.74879   1.68478   1.37350    |
 |   250    0.40000   0.90000   0.80000   |    0.74879   1.68478   1.59326    |
 |   251    0.50000   0.00000   0.00000   |    0.93599   0.00000   0.27470    |
 |   252    0.50000   0.00000   0.20000   |    0.93599   0.00000   0.49446    |
 |   253    0.50000   0.00000   0.40000   |    0.93599   0.00000   0.71422    |
 |   254    0.50000   0.00000   0.60000   |    0.93599   0.00000   0.93398    |
 |   255    0.50000   0.00000   0.80000   |    0.93599   0.00000   1.15374    |
 |   256    0.50000   0.10000   0.00000   |    0.93599   0.18720   0.32964    |
 |   257    0.50000   0.10000   0.20000   |    0.93599   0.18720   0.54940    |
 |   258    0.50000   0.10000   0.40000   |    0.93599   0.18720   0.76916    |
 |   259    0.50000   0.10000   0.60000   |    0.93599   0.18720   0.98892    |
 |   260    0.50000   0.10000   0.80000   |    0.93599   0.18720   1.20868    |
 |   261    0.50000   0.20000   0.00000   |    0.93599   0.37440   0.38458    |
 |   262    0.50000   0.20000   0.20000   |    0.93599   0.37440   0.60434    |
 |   263    0.50000   0.20000   0.40000   |    0.93599   0.37440   0.82410    |
 |   264    0.50000   0.20000   0.60000   |    0.93599   0.37440   1.04386    |
 |   265    0.50000   0.20000   0.80000   |    0.93599   0.37440   1.26362    |
 |   266    0.50000   0.30000   0.00000   |    0.93599   0.56159   0.43952    |
 |   267    0.50000   0.30000   0.20000   |    0.93599   0.56159   0.65928    |
 |   268    0.50000   0.30000   0.40000   |    0.93599   0.56159   0.87904    |
 |   269    0.50000   0.30000   0.60000   |    0.93599   0.56159   1.09880    |
 |   270    0.50000   0.30000   0.80000   |    0.93599   0.56159   1.31856    |
 |   271    0.50000   0.40000   0.00000   |    0.93599   0.74879   0.49446    |
 |   272    0.50000   0.40000   0.20000   |    0.93599   0.74879   0.71422    |
 |   273    0.50000   0.40000   0.40000   |    0.93599   0.74879   0.93398    |
 |   274    0.50000   0.40000   0.60000   |    0.93599   0.74879   1.15374    |
 |   275    0.50000   0.40000   0.80000   |    0.93599   0.74879   1.37350    |
 |   276    0.50000   0.50000   0.00000   |    0.93599   0.93599   0.54940    |
 |   277    0.50000   0.50000   0.20000   |    0.93599   0.93599   0.76916    |
 |   278    0.50000   0.50000   0.40000   |    0.93599   0.93599   0.98892    |
 |   279    0.50000   0.50000   0.60000   |    0.93599   0.93599   1.20868    |
 |   280    0.50000   0.50000   0.80000   |    0.93599   0.93599   1.42844    |
 |   281    0.50000   0.60000   0.00000   |    0.93599   1.12319   0.60434    |
 |   282    0.50000   0.60000   0.20000   |    0.93599   1.12319   0.82410    |
 |   283    0.50000   0.60000   0.40000   |    0.93599   1.12319   1.04386    |
 |   284    0.50000   0.60000   0.60000   |    0.93599   1.12319   1.26362    |
 |   285    0.50000   0.60000   0.80000   |    0.93599   1.12319   1.48338    |
 |   286    0.50000   0.70000   0.00000   |    0.93599   1.31039   0.65928    |
 |   287    0.50000   0.70000   0.20000   |    0.93599   1.31039   0.87904    |
 |   288    0.50000   0.70000   0.40000   |    0.93599   1.31039   1.09880    |
 |   289    0.50000   0.70000   0.60000   |    0.93599   1.31039   1.31856    |
 |   290    0.50000   0.70000   0.80000   |    0.93599   1.31039   1.53832    |
 |   291    0.50000   0.80000   0.00000   |    0.93599   1.49758   0.71422    |
 |   292    0.50000   0.80000   0.20000   |    0.93599   1.49758   0.93398    |
 |   293    0.50000   0.80000   0.40000   |    0.93599   1.49758   1.15374    |
 |   294    0.50000   0.80000   0.60000   |    0.93599   1.49758   1.37350    |
 |   295    0.50000   0.80000   0.80000   |    0.93599   1.49758   1.59326    |
 |   296    0.50000   0.90000   0.00000   |    0.93599   1.68478   0.76916    |
 |   297    0.50000   0.90000   0.20000   |    0.93599   1.68478   0.98892    |
 |   298    0.50000   0.90000   0.40000   |    0.93599   1.68478   1.20868    |
 |   299    0.50000   0.90000   0.60000   |    0.93599   1.68478   1.42844    |
 |   300    0.50000   0.90000   0.80000   |    0.93599   1.68478   1.64820    |
 |   301    0.60000   0.00000   0.00000   |    1.12319   0.00000   0.32964    |
 |   302    0.60000   0.00000   0.20000   |    1.12319   0.00000   0.54940    |
 |   303    0.60000   0.00000   0.40000   |    1.12319   0.00000   0.76916    |
 |   304    0.60000   0.00000   0.60000   |    1.12319   0.00000   0.98892    |
 |   305    0.60000   0.00000   0.80000   |    1.12319   0.00000   1.20868    |
 |   306    0.60000   0.10000   0.00000   |    1.12319   0.18720   0.38458    |
 |   307    0.60000   0.10000   0.20000   |    1.12319   0.18720   0.60434    |
 |   308    0.60000   0.10000   0.40000   |    1.12319   0.18720   0.82410    |
 |   309    0.60000   0.10000   0.60000   |    1.12319   0.18720   1.04386    |
 |   310    0.60000   0.10000   0.80000   |    1.12319   0.18720   1.26362    |
 |   311    0.60000   0.20000   0.00000   |    1.12319   0.37440   0.43952    |
 |   312    0.60000   0.20000   0.20000   |    1.12319   0.37440   0.65928    |
 |   313    0.60000   0.20000   0.40000   |    1.12319   0.37440   0.87904    |
 |   314    0.60000   0.20000   0.60000   |    1.12319   0.37440   1.09880    |
 |   315    0.60000   0.20000   0.80000   |    1.12319   0.37440   1.31856    |
 |   316    0.60000   0.30000   0.00000   |    1.12319   0.56159   0.49446    |
 |   317    0.60000   0.30000   0.20000   |    1.12319   0.56159   0.71422    |
 |   318    0.60000   0.30000   0.40000   |    1.12319   0.56159   0.93398    |
 |   319    0.60000   0.30000   0.60000   |    1.12319   0.56159   1.15374    |
 |   320    0.60000   0.30000   0.80000   |    1.12319   0.56159   1.37350    |
 |   321    0.60000   0.40000   0.00000   |    1.12319   0.74879   0.54940    |
 |   322    0.60000   0.40000   0.20000   |    1.12319   0.74879   0.76916    |
 |   323    0.60000   0.40000   0.40000   |    1.12319   0.74879   0.98892    |
 |   324    0.60000   0.40000   0.60000   |    1.12319   0.74879   1.20868    |
 |   325    0.60000   0.40000   0.80000   |    1.12319   0.74879   1.42844    |
 |   326    0.60000   0.50000   0.00000   |    1.12319   0.93599   0.60434    |
 |   327    0.60000   0.50000   0.20000   |    1.12319   0.93599   0.82410    |
 |   328    0.60000   0.50000   0.40000   |    1.12319   0.93599   1.04386    |
 |   329    0.60000   0.50000   0.60000   |    1.12319   0.93599   1.26362    |
 |   330    0.60000   0.50000   0.80000   |    1.12319   0.93599   1.48338    |
 |   331    0.60000   0.60000   0.00000   |    1.12319   1.12319   0.65928    |
 |   332    0.60000   0.60000   0.20000   |    1.12319   1.12319   0.87904    |
 |   333    0.60000   0.60000   0.40000   |    1.12319   1.12319   1.09880    |
 |   334    0.60000   0.60000   0.60000   |    1.12319   1.12319   1.31856    |
 |   335    0.60000   0.60000   0.80000   |    1.12319   1.12319   1.53832    |
 |   336    0.60000   0.70000   0.00000   |    1.12319   1.31039   0.71422    |
 |   337    0.60000   0.70000   0.20000   |    1.12319   1.31039   0.93398    |
 |   338    0.60000   0.70000   0.40000   |    1.12319   1.31039   1.15374    |
 |   339    0.60000   0.70000   0.60000   |    1.12319   1.31039   1.37350    |
 |   340    0.60000   0.70000   0.80000   |    1.12319   1.31039   1.59326    |
 |   341    0.60000   0.80000   0.00000   |    1.12319   1.49758   0.76916    |
 |   342    0.60000   0.80000   0.20000   |    1.12319   1.49758   0.98892    |
 |   343    0.60000   0.80000   0.40000   |    1.12319   1.49758   1.20868    |
 |   344    0.60000   0.80000   0.60000   |    1.12319   1.49758   1.42844    |
 |   345    0.60000   0.80000   0.80000   |    1.12319   1.49758   1.64820    |
 |   346    0.60000   0.90000   0.00000   |    1.12319   1.68478   0.82410    |
 |   347    0.60000   0.90000   0.20000   |    1.12319   1.68478   1.04386    |
 |   348    0.60000   0.90000   0.40000   |    1.12319   1.68478   1.26362    |
 |   349    0.60000   0.90000   0.60000   |    1.12319   1.68478   1.48338    |
 |   350    0.60000   0.90000   0.80000   |    1.12319   1.68478   1.70314    |
 |   351    0.70000   0.00000   0.00000   |    1.31039   0.00000   0.38458    |
 |   352    0.70000   0.00000   0.20000   |    1.31039   0.00000   0.60434    |
 |   353    0.70000   0.00000   0.40000   |    1.31039   0.00000   0.82410    |
 |   354    0.70000   0.00000   0.60000   |    1.31039   0.00000   1.04386    |
 |   355    0.70000   0.00000   0.80000   |    1.31039   0.00000   1.26362    |
 |   356    0.70000   0.10000   0.00000   |    1.31039   0.18720   0.43952    |
 |   357    0.70000   0.10000   0.20000   |    1.31039   0.18720   0.65928    |
 |   358    0.70000   0.10000   0.40000   |    1.31039   0.18720   0.87904    |
 |   359    0.70000   0.10000   0.60000   |    1.31039   0.18720   1.09880    |
 |   360    0.70000   0.10000   0.80000   |    1.31039   0.18720   1.31856    |
 |   361    0.70000   0.20000   0.00000   |    1.31039   0.37440   0.49446    |
 |   362    0.70000   0.20000   0.20000   |    1.31039   0.37440   0.71422    |
 |   363    0.70000   0.20000   0.40000   |    1.31039   0.37440   0.93398    |
 |   364    0.70000   0.20000   0.60000   |    1.31039   0.37440   1.15374    |
 |   365    0.70000   0.20000   0.80000   |    1.31039   0.37440   1.37350    |
 |   366    0.70000   0.30000   0.00000   |    1.31039   0.56159   0.54940    |
 |   367    0.70000   0.30000   0.20000   |    1.31039   0.56159   0.76916    |
 |   368    0.70000   0.30000   0.40000   |    1.31039   0.56159   0.98892    |
 |   369    0.70000   0.30000   0.60000   |    1.31039   0.56159   1.20868    |
 |   370    0.70000   0.30000   0.80000   |    1.31039   0.56159   1.42844    |
 |   371    0.70000   0.40000   0.00000   |    1.31039   0.74879   0.60434    |
 |   372    0.70000   0.40000   0.20000   |    1.31039   0.74879   0.82410    |
 |   373    0.70000   0.40000   0.40000   |    1.31039   0.74879   1.04386    |
 |   374    0.70000   0.40000   0.60000   |    1.31039   0.74879   1.26362    |
 |   375    0.70000   0.40000   0.80000   |    1.31039   0.74879   1.48338    |
 |   376    0.70000   0.50000   0.00000   |    1.31039   0.93599   0.65928    |
 |   377    0.70000   0.50000   0.20000   |    1.31039   0.93599   0.87904    |
 |   378    0.70000   0.50000   0.40000   |    1.31039   0.93599   1.09880    |
 |   379    0.70000   0.50000   0.60000   |    1.31039   0.93599   1.31856    |
 |   380    0.70000   0.50000   0.80000   |    1.31039   0.93599   1.53832    |
 |   381    0.70000   0.60000   0.00000   |    1.31039   1.12319   0.71422    |
 |   382    0.70000   0.60000   0.20000   |    1.31039   1.12319   0.93398    |
 |   383    0.70000   0.60000   0.40000   |    1.31039   1.12319   1.15374    |
 |   384    0.70000   0.60000   0.60000   |    1.31039   1.12319   1.37350    |
 |   385    0.70000   0.60000   0.80000   |    1.31039   1.12319   1.59326    |
 |   386    0.70000   0.70000   0.00000   |    1.31039   1.31039   0.76916    |
 |   387    0.70000   0.70000   0.20000   |    1.31039   1.31039   0.98892    |
 |   388    0.70000   0.70000   0.40000   |    1.31039   1.31039   1.20868    |
 |   389    0.70000   0.70000   0.60000   |    1.31039   1.31039   1.42844    |
 |   390    0.70000   0.70000   0.80000   |    1.31039   1.31039   1.64820    |
 |   391    0.70000   0.80000   0.00000   |    1.31039   1.49758   0.82410    |
 |   392    0.70000   0.80000   0.20000   |    1.31039   1.49758   1.04386    |
 |   393    0.70000   0.80000   0.40000   |    1.31039   1.49758   1.26362    |
 |   394    0.70000   0.80000   0.60000   |    1.31039   1.49758   1.48338    |
 |   395    0.70000   0.80000   0.80000   |    1.31039   1.49758   1.70314    |
 |   396    0.70000   0.90000   0.00000   |    1.31039   1.68478   0.87904    |
 |   397    0.70000   0.90000   0.20000   |    1.31039   1.68478   1.09880    |
 |   398    0.70000   0.90000   0.40000   |    1.31039   1.68478   1.31856    |
 |   399    0.70000   0.90000   0.60000   |    1.31039   1.68478   1.53832    |
 |   400    0.70000   0.90000   0.80000   |    1.31039   1.68478   1.75808    |
 |   401    0.80000   0.00000   0.00000   |    1.49758   0.00000   0.43952    |
 |   402    0.80000   0.00000   0.20000   |    1.49758   0.00000   0.65928    |
 |   403    0.80000   0.00000   0.40000   |    1.49758   0.00000   0.87904    |
 |   404    0.80000   0.00000   0.60000   |    1.49758   0.00000   1.09880    |
 |   405    0.80000   0.00000   0.80000   |    1.49758   0.00000   1.31856    |
 |   406    0.80000   0.10000   0.00000   |    1.49758   0.18720   0.49446    |
 |   407    0.80000   0.10000   0.20000   |    1.49758   0.18720   0.71422    |
 |   408    0.80000   0.10000   0.40000   |    1.49758   0.18720   0.93398    |
 |   409    0.80000   0.10000   0.60000   |    1.49758   0.18720   1.15374    |
 |   410    0.80000   0.10000   0.80000   |    1.49758   0.18720   1.37350    |
 |   411    0.80000   0.20000   0.00000   |    1.49758   0.37440   0.54940    |
 |   412    0.80000   0.20000   0.20000   |    1.49758   0.37440   0.76916    |
 |   413    0.80000   0.20000   0.40000   |    1.49758   0.37440   0.98892    |
 |   414    0.80000   0.20000   0.60000   |    1.49758   0.37440   1.20868    |
 |   415    0.80000   0.20000   0.80000   |    1.49758   0.37440   1.42844    |
 |   416    0.80000   0.30000   0.00000   |    1.49758   0.56159   0.60434    |
 |   417    0.80000   0.30000   0.20000   |    1.49758   0.56159   0.82410    |
 |   418    0.80000   0.30000   0.40000   |    1.49758   0.56159   1.04386    |
 |   419    0.80000   0.30000   0.60000   |    1.49758   0.56159   1.26362    |
 |   420    0.80000   0.30000   0.80000   |    1.49758   0.56159   1.48338    |
 |   421    0.80000   0.40000   0.00000   |    1.49758   0.74879   0.65928    |
 |   422    0.80000   0.40000   0.20000   |    1.49758   0.74879   0.87904    |
 |   423    0.80000   0.40000   0.40000   |    1.49758   0.74879   1.09880    |
 |   424    0.80000   0.40000   0.60000   |    1.49758   0.74879   1.31856    |
 |   425    0.80000   0.40000   0.80000   |    1.49758   0.74879   1.53832    |
 |   426    0.80000   0.50000   0.00000   |    1.49758   0.93599   0.71422    |
 |   427    0.80000   0.50000   0.20000   |    1.49758   0.93599   0.93398    |
 |   428    0.80000   0.50000   0.40000   |    1.49758   0.93599   1.15374    |
 |   429    0.80000   0.50000   0.60000   |    1.49758   0.93599   1.37350    |
 |   430    0.80000   0.50000   0.80000   |    1.49758   0.93599   1.59326    |
 |   431    0.80000   0.60000   0.00000   |    1.49758   1.12319   0.76916    |
 |   432    0.80000   0.60000   0.20000   |    1.49758   1.12319   0.98892    |
 |   433    0.80000   0.60000   0.40000   |    1.49758   1.12319   1.20868    |
 |   434    0.80000   0.60000   0.60000   |    1.49758   1.12319   1.42844    |
 |   435    0.80000   0.60000   0.80000   |    1.49758   1.12319   1.64820    |
 |   436    0.80000   0.70000   0.00000   |    1.49758   1.31039   0.82410    |
 |   437    0.80000   0.70000   0.20000   |    1.49758   1.31039   1.04386    |
 |   438    0.80000   0.70000   0.40000   |    1.49758   1.31039   1.26362    |
 |   439    0.80000   0.70000   0.60000   |    1.49758   1.31039   1.48338    |
 |   440    0.80000   0.70000   0.80000   |    1.49758   1.31039   1.70314    |
 |   441    0.80000   0.80000   0.00000   |    1.49758   1.49758   0.87904    |
 |   442    0.80000   0.80000   0.20000   |    1.49758   1.49758   1.09880    |
 |   443    0.80000   0.80000   0.40000   |    1.49758   1.49758   1.31856    |
 |   444    0.80000   0.80000   0.60000   |    1.49758   1.49758   1.53832    |
 |   445    0.80000   0.80000   0.80000   |    1.49758   1.49758   1.75808    |
 |   446    0.80000   0.90000   0.00000   |    1.49758   1.68478   0.93398    |
 |   447    0.80000   0.90000   0.20000   |    1.49758   1.68478   1.15374    |
 |   448    0.80000   0.90000   0.40000   |    1.49758   1.68478   1.37350    |
 |   449    0.80000   0.90000   0.60000   |    1.49758   1.68478   1.59326    |
 |   450    0.80000   0.90000   0.80000   |    1.49758   1.68478   1.81302    |
 |   451    0.90000   0.00000   0.00000   |    1.68478   0.00000   0.49446    |
 |   452    0.90000   0.00000   0.20000   |    1.68478   0.00000   0.71422    |
 |   453    0.90000   0.00000   0.40000   |    1.68478   0.00000   0.93398    |
 |   454    0.90000   0.00000   0.60000   |    1.68478   0.00000   1.15374    |
 |   455    0.90000   0.00000   0.80000   |    1.68478   0.00000   1.37350    |
 |   456    0.90000   0.10000   0.00000   |    1.68478   0.18720   0.54940    |
 |   457    0.90000   0.10000   0.20000   |    1.68478   0.18720   0.76916    |
 |   458    0.90000   0.10000   0.40000   |    1.68478   0.18720   0.98892    |
 |   459    0.90000   0.10000   0.60000   |    1.68478   0.18720   1.20868    |
 |   460    0.90000   0.10000   0.80000   |    1.68478   0.18720   1.42844    |
 |   461    0.90000   0.20000   0.00000   |    1.68478   0.37440   0.60434    |
 |   462    0.90000   0.20000   0.20000   |    1.68478   0.37440   0.82410    |
 |   463    0.90000   0.20000   0.40000   |    1.68478   0.37440   1.04386    |
 |   464    0.90000   0.20000   0.60000   |    1.68478   0.37440   1.26362    |
 |   465    0.90000   0.20000   0.80000   |    1.68478   0.37440   1.48338    |
 |   466    0.90000   0.30000   0.00000   |    1.68478   0.56159   0.65928    |
 |   467    0.90000   0.30000   0.20000   |    1.68478   0.56159   0.87904    |
 |   468    0.90000   0.30000   0.40000   |    1.68478   0.56159   1.09880    |
 |   469    0.90000   0.30000   0.60000   |    1.68478   0.56159   1.31856    |
 |   470    0.90000   0.30000   0.80000   |    1.68478   0.56159   1.53832    |
 |   471    0.90000   0.40000   0.00000   |    1.68478   0.74879   0.71422    |
 |   472    0.90000   0.40000   0.20000   |    1.68478   0.74879   0.93398    |
 |   473    0.90000   0.40000   0.40000   |    1.68478   0.74879   1.15374    |
 |   474    0.90000   0.40000   0.60000   |    1.68478   0.74879   1.37350    |
 |   475    0.90000   0.40000   0.80000   |    1.68478   0.74879   1.59326    |
 |   476    0.90000   0.50000   0.00000   |    1.68478   0.93599   0.76916    |
 |   477    0.90000   0.50000   0.20000   |    1.68478   0.93599   0.98892    |
 |   478    0.90000   0.50000   0.40000   |    1.68478   0.93599   1.20868    |
 |   479    0.90000   0.50000   0.60000   |    1.68478   0.93599   1.42844    |
 |   480    0.90000   0.50000   0.80000   |    1.68478   0.93599   1.64820    |
 |   481    0.90000   0.60000   0.00000   |    1.68478   1.12319   0.82410    |
 |   482    0.90000   0.60000   0.20000   |    1.68478   1.12319   1.04386    |
 |   483    0.90000   0.60000   0.40000   |    1.68478   1.12319   1.26362    |
 |   484    0.90000   0.60000   0.60000   |    1.68478   1.12319   1.48338    |
 |   485    0.90000   0.60000   0.80000   |    1.68478   1.12319   1.70314    |
 |   486    0.90000   0.70000   0.00000   |    1.68478   1.31039   0.87904    |
 |   487    0.90000   0.70000   0.20000   |    1.68478   1.31039   1.09880    |
 |   488    0.90000   0.70000   0.40000   |    1.68478   1.31039   1.31856    |
 |   489    0.90000   0.70000   0.60000   |    1.68478   1.31039   1.53832    |
 |   490    0.90000   0.70000   0.80000   |    1.68478   1.31039   1.75808    |
 |   491    0.90000   0.80000   0.00000   |    1.68478   1.49758   0.93398    |
 |   492    0.90000   0.80000   0.20000   |    1.68478   1.49758   1.15374    |
 |   493    0.90000   0.80000   0.40000   |    1.68478   1.49758   1.37350    |
 |   494    0.90000   0.80000   0.60000   |    1.68478   1.49758   1.59326    |
 |   495    0.90000   0.80000   0.80000   |    1.68478   1.49758   1.81302    |
 |   496    0.90000   0.90000   0.00000   |    1.68478   1.68478   0.98892    |
 |   497    0.90000   0.90000   0.20000   |    1.68478   1.68478   1.20868    |
 |   498    0.90000   0.90000   0.40000   |    1.68478   1.68478   1.42844    |
 |   499    0.90000   0.90000   0.60000   |    1.68478   1.68478   1.64820    |
 |   500    0.90000   0.90000   0.80000   |    1.68478   1.68478   1.86796    |
 *----------------------------------------------------------------------------*
  
  
 *---------------------------------- MAIN ------------------------------------*
 |  Number of Wannier Functions               :                16             |
 |  Number of Objective Wannier Functions     :                16             |
 |  Number of input Bloch states              :                16             |
 |  Output verbosity (1=low, 5=high)          :                 3             |
 |  Timing Level (1=low, 5=high)              :                 1             |
 |  Optimisation (0=memory, 3=speed)          :                 3             |
 |  Length Unit                               :               Ang             |
 |  Post-processing setup (write *.nnkp)      :                 F             |
 |  Using Gamma-only branch of algorithms     :                 F             |
 |  CP code post-processing                   :                 F             |
 |  Wavefunction (UNK) file-type              :       unformatted             |
 |  Wavefunction spin channel                 :                up             |
 *----------------------------------------------------------------------------*
 *------------------------------- WANNIERISE ---------------------------------*
 |  Total number of iterations                :               800             |
 |  Number of CG steps before reset           :                 5             |
 |  Trial step length for line search         :             2.000             |
 |  Convergence tolerence                     :         0.100E-09             |
 |  Convergence window                        :                -1             |
 |  Iterations between writing output         :                10             |
 |  Iterations between backing up to disk     :                10             |
 |  Write r^2_nm to file                      :                 F             |
 |  Write xyz WF centres to file              :                 F             |
 |  Write on-site energies <0n|H|0n> to file  :                 F             |
 |  Use guiding centre to control phases      :                 F             |
 |  Use phases for initial projections        :                 F             |
 |  Iterations before starting guiding centres:                 0             |
 |  Iterations between using guiding centres  :                 1             |
 |  Perform selective localization            :                 F             |
 |  Use constrains in selective localization  :                 F             |
 |  Value of the Lagrange multiplier          :         0.100E+01             |
 *----------------------------------------------------------------------------*
 *------------------------------- DISENTANGLE --------------------------------*
 |  Using band disentanglement                :                 F             |
 |  Total number of iterations                :               100             |
 |  Mixing ratio                              :             0.500             |
 |  Convergence tolerence                     :         1.000E-10             |
 |  Convergence window                        :                 3             |
 *----------------------------------------------------------------------------*
 *-------------------------------- PLOTTING ----------------------------------*
 |  Plotting Wannier functions                :                 T             |
 |   Size of supercell for plotting           :     3x    3x    3             |
 |   Plotting mode (molecule or crystal)      :           crystal             |
 |   Plotting format                          :          xcrysden             |
 |   Plot radius                              :             3.500             |
 |   Plot scale                               :             1.000             |
 *----------------------------------------------------------------------------*
 |  Plotting Fermi surface                    :                 F             |
 |   Number of plotting points (along b_1)    :                50             |
 |   Plotting format                          :          xcrysden             |
 *----------------------------------------------------------------------------*
 |  Plotting interpolated bandstructure       :                 T             |
 |   Number of K-path sections                :                 6             |
 |   Divisions along first K-path section     :               100             |
 |   Output format                            :           gnuplot             |
 |   Output mode                              :               s-k             |
 *----------------------------------------------------------------------------*
 |   K-space path sections:                                                   |
 |    From: G       0.000  0.000  0.000     To: X       0.000  0.000  0.500   |
 |    From: X       0.000  0.000  0.500     To: M       0.457  0.000  0.272   |
 |    From: M       0.457  0.000  0.272     To: Y       0.500  0.000  0.000   |
 |    From: Y       0.500  0.000  0.000     To: K       0.543  0.000 -0.272   |
 |    From: K       0.543  0.000 -0.272     To: F       0.457  0.457  0.043   |
 |    From: F       0.457  0.457  0.043     To: G       0.000  0.000  0.000   |
 *----------------------------------------------------------------------------*
 |  Plotting Hamiltonian in WF basis          :                 F             |
 *----------------------------------------------------------------------------*
 |  Writing data for Van der Waals post-proc  :                 F             |
 *----------------------------------------------------------------------------*
 *------------------------------- TRANSPORT ----------------------------------*
 |  Transport mode                            :              bulk             |
 |   Hamiltonian from external files          :                 F             |
 |   System extended in                       :              none             |
 |   Centre of the unit cell to which WF are translated (fract. coords):      |
 |                                       0.000000,    0.000000,    0.000000   |
 |  Fermi energy (eV)                         :             0.000             |
 *----------------------------------------------------------------------------*
 Time to read parameters        0.030 (sec)

 *---------------------------------- K-MESH ----------------------------------*
 +----------------------------------------------------------------------------+
 |                    Distance to Nearest-Neighbour Shells                    |
 |                    ------------------------------------                    |
 |          Shell             Distance (Ang^-1)          Multiplicity         |
 |          -----             -----------------          ------------         |
 |             1                   0.195094                      4            |
 |             2                   0.219760                      2            |
 |             3                   0.249417                      4            |
 |             4                   0.264738                      2            |
 |             5                   0.286635                      4            |
 |             6                   0.332420                      4            |
 |             7                   0.344065                      4            |
 |             8                   0.390187                      8            |
 |             9                   0.422178                      8            |
 |            10                   0.422787                      4            |
 |            11                   0.427721                      4            |
 |            12                   0.439520                      2            |
 |            13                   0.449868                      8            |
 |            14                   0.498834                      8            |
 |            15                   0.500675                      8            |
 |            16                   0.513093                      4            |
 |            17                   0.528710                      4            |
 |            18                   0.529476                      4            |
 |            19                   0.564275                      4            |
 |            20                   0.568434                      8            |
 |            21                   0.573271                      8            |
 |            22                   0.585281                      4            |
 |            23                   0.591972                      4            |
 |            24                   0.602084                      8            |
 |            25                   0.609858                      4            |
 |            26                   0.625178                      4            |
 |            27                   0.631447                      8            |
 |            28                   0.632669                      4            |
 |            29                   0.647847                      8            |
 |            30                   0.659280                      2            |
 |            31                   0.664840                      8            |
 |            32                   0.677184                      8            |
 |            33                   0.677564                      8            |
 |            34                   0.680654                      4            |
 |            35                   0.688130                      8            |
 |            36                   0.694785                      8            |
 +----------------------------------------------------------------------------+
 | The b-vectors are chosen automatically                                     |
 | Shell:  1 Multiplicity:  4                                                 |
 | b-vector 1 :        0.000000    0.187198    0.054940      (Ang^-1)         |
 | b-vector 2 :        0.187198    0.000000    0.054940      (Ang^-1)         |
 | b-vector 3 :        0.000000   -0.187198   -0.054940      (Ang^-1)         |
 | b-vector 4 :       -0.187198    0.000000   -0.054940      (Ang^-1)         |
 | Shell:  1 w_b   14.0758492      (Ang^2)                                    |
 | B1 condition is not satisfied: Adding another shell                        |
 | Shell:  2 Multiplicity:  2                                                 |
 | b-vector 1 :        0.000000    0.000000    0.219760      (Ang^-1)         |
 | b-vector 2 :        0.000000    0.000000   -0.219760      (Ang^-1)         |
 | Shell:  1 w_b   13.1366341      (Ang^2)                                    |
 | Shell:  2 w_b    8.7110767      (Ang^2)                                    |
 | B1 condition is not satisfied: Adding another shell                        |
 | Shell:  3 Multiplicity:  4                                                 |
 | b-vector 1 :        0.000000    0.187198   -0.164820      (Ang^-1)         |
 | b-vector 2 :        0.187198    0.000000   -0.164820      (Ang^-1)         |
 | b-vector 3 :        0.000000   -0.187198    0.164820      (Ang^-1)         |
 | b-vector 4 :       -0.187198    0.000000    0.164820      (Ang^-1)         |
 | Shell:  1 w_b   10.7011090      (Ang^2)                                    |
 | Shell:  2 w_b    5.0026014      (Ang^2)                                    |
 | Shell:  3 w_b    3.5670363      (Ang^2)                                    |
 | The following shells are used:   1,  2,  3                                 |
 +----------------------------------------------------------------------------+
 |                        Shell   # Nearest-Neighbours                        |
 |                        -----   --------------------                        |
 |                          1               4                                 |
 |                          2               2                                 |
 |                          3               4                                 |
 +----------------------------------------------------------------------------+
 | Completeness relation is fully satisfied [Eq. (B1), PRB 56, 12847 (1997)]  |
 +----------------------------------------------------------------------------+
 |                  b_k Vectors (Ang^-1) and Weights (Ang^2)                  |
 |                  ----------------------------------------                  |
 |            No.         b_k(x)      b_k(y)      b_k(z)        w_b           |
 |            ---        --------------------------------     --------        |
 |             1         0.000000    0.187198    0.054940    10.701109        |
 |             2         0.187198    0.000000    0.054940    10.701109        |
 |             3         0.000000   -0.187198   -0.054940    10.701109        |
 |             4        -0.187198    0.000000   -0.054940    10.701109        |
 |             5         0.000000    0.000000    0.219760     5.002601        |
 |             6         0.000000    0.000000   -0.219760     5.002601        |
 |             7         0.000000    0.187198   -0.164820     3.567036        |
 |             8         0.187198    0.000000   -0.164820     3.567036        |
 |             9         0.000000   -0.187198    0.164820     3.567036        |
 |            10        -0.187198    0.000000    0.164820     3.567036        |
 +----------------------------------------------------------------------------+
 |                           b_k Directions (Ang^-1)                          |
 |                           -----------------------                          |
 |            No.           x           y           z                         |
 |            ---        --------------------------------                     |
 |             1         0.000000    0.187198    0.054940                     |
 |             2         0.187198    0.000000    0.054940                     |
 |             3         0.000000    0.000000    0.219760                     |
 |             4         0.000000    0.187198   -0.164820                     |
 |             5         0.187198    0.000000   -0.164820                     |
 +----------------------------------------------------------------------------+
  
 Time to get kmesh              0.203 (sec)
 *============================================================================*
 |                              MEMORY ESTIMATE                               |
 |         Maximum RAM allocated during each phase of the calculation         |
 *============================================================================*
 |                            Wannierise:           50.24 Mb                  |
 |                                                                            |
 |   N.B. by setting optimisation=0 memory usage will be reduced to:          |
 |                            Wannierise:           30.71 Mb                  |
 |   However, this will result in more i/o and slow down the calculation      |
 |                          plot_wannier:           50.24 Mb                  |
 *----------------------------------------------------------------------------*
  
 Starting a new Wannier90 calculation ...


 Reading overlaps from NbP.mmn    :  Created on 20Feb2024 at 17: 5: 7

 Reading projections from NbP.amn :  Created on 20Feb2024 at 17: 2:32

 Time to read overlaps          0.907 (sec)

 done

 
 *------------------------------- WANNIERISE ---------------------------------*
 +--------------------------------------------------------------------+<-- CONV
 | Iter  Delta Spread     RMS Gradient      Spread (Ang^2)      Time  |<-- CONV
 +--------------------------------------------------------------------+<-- CONV
 
 ------------------------------------------------------------------------------
 Initial State
  WF centre and spread    1  ( -0.000505, -0.000363,  5.616807 )     2.26362631
  WF centre and spread    2  (  0.006819,  0.004145,  5.755661 )     5.03834726
  WF centre and spread    3  ( -0.001346,  0.001267,  5.789667 )     2.69635237
  WF centre and spread    4  ( -0.000093,  0.000355,  5.713139 )     2.06383091
  WF centre and spread    5  ( -0.006277, -0.002174,  5.647023 )     5.22127898
  WF centre and spread    6  (  1.677652, -0.000361,  2.757643 )     2.26494268
  WF centre and spread    7  (  1.679542, -0.000817,  2.930628 )     2.70780519
  WF centre and spread    8  (  1.677268,  0.010269,  2.896094 )     5.00995121
  WF centre and spread    9  (  1.678577, -0.000013,  2.854134 )     2.06311186
  WF centre and spread   10  (  1.673834, -0.003135,  2.788833 )     5.26432682
  WF centre and spread   11  (  1.668043,  1.687108,  4.720828 )     5.91996139
  WF centre and spread   12  (  1.682649,  1.679862,  4.822836 )     3.58940298
  WF centre and spread   13  (  1.683530,  1.673071,  4.725552 )     4.55788752
  WF centre and spread   14  (  0.001968,  1.678621,  1.865048 )     5.98873422
  WF centre and spread   15  ( -0.007257,  1.684299,  1.865356 )     4.53596252
  WF centre and spread   16  (  0.001759,  1.683375,  1.964287 )     3.60400578
  Sum of centres and spreads ( 13.416163, 10.095510, 62.713538 )    62.78952802
 
      0     0.628E+02     0.0000000000       62.7895280195       0.00  <-- CONV
        O_D=      0.7440201 O_OD=     19.1243384 O_TOT=     62.7895280 <-- SPRD
 ------------------------------------------------------------------------------
 Cycle:      1
  LINE --> Iteration                     :           1
  LINE --> Spread at initial point       :   62.7895280194501     
  LINE --> Spread at trial step          :   62.7815669320804     
  LINE --> Slope along search direction  : -3.984801852098254E-003
  LINE --> ||SD gradient||^2             :   1.06916671886345     
  LINE --> Trial step length             :   2.00000000000000     
  LINE --> Optimal parabolic step length :   935.802105313975     
  LINE --> Spread at predicted minimum   :   60.9250350382238     
  LINE --> CG coefficient                :  0.000000000000000E+000
  WF centre and spread    1  ( -0.000601, -0.000705,  5.612746 )     2.22873423
  WF centre and spread    2  (  0.013187,  0.003772,  5.748881 )     4.93828509
  WF centre and spread    3  ( -0.002256,  0.002272,  5.793690 )     2.61339209
  WF centre and spread    4  ( -0.000305,  0.000706,  5.712884 )     2.03696857
  WF centre and spread    5  ( -0.011001, -0.001783,  5.639081 )     4.98803116
  WF centre and spread    6  (  1.677385, -0.000384,  2.753612 )     2.23078630
  WF centre and spread    7  (  1.680239, -0.002026,  2.934261 )     2.62269327
  WF centre and spread    8  (  1.677864,  0.016162,  2.889532 )     4.90703642
  WF centre and spread    9  (  1.678796, -0.000233,  2.853835 )     2.03500015
  WF centre and spread   10  (  1.673119, -0.007001,  2.782625 )     5.02589278
  WF centre and spread   11  (  1.663929,  1.687820,  4.714087 )     5.73244084
  WF centre and spread   12  (  1.681653,  1.681637,  4.825307 )     3.47148121
  WF centre and spread   13  (  1.686844,  1.673014,  4.716622 )     4.45607985
  WF centre and spread   14  (  0.005404,  1.673993,  1.860185 )     5.84337829
  WF centre and spread   15  ( -0.006519,  1.688522,  1.855814 )     4.43800628
  WF centre and spread   16  (  0.002241,  1.681744,  1.966497 )     3.47500154
  Sum of centres and spreads ( 13.419979, 10.097510, 62.659657 )    61.04320807
 
      1    -0.175E+01     1.0340051832       61.0432080709       0.11  <-- CONV
        O_D=      0.6455191 O_OD=     17.4765194 O_TOT=     61.0432081 <-- SPRD
 Delta: O_D= -0.9850094E-01 O_OD= -0.1647819E+01 O_TOT= -0.1746320E+01 <-- DLTA
 ------------------------------------------------------------------------------
 Cycle:     10
  LINE --> Iteration                     :          10
  LINE --> Spread at initial point       :   59.3547475898682     
  LINE --> Spread at trial step          :   59.3536721011027     
  LINE --> Slope along search direction  : -5.428863941416556E-004
  LINE --> ||SD gradient||^2             :  0.167660128392273     
  LINE --> Trial step length             :   2.00000000000000     
  LINE --> Optimal parabolic step length :   105.578605233345     
  LINE --> Spread at predicted minimum   :   59.3260889957213     
  LINE --> CG coefficient                :   2.89034493500530     
  WF centre and spread    1  ( -0.001631, -0.001385,  5.591312 )     2.23819179
  WF centre and spread    2  (  0.038420, -0.000924,  5.742012 )     5.03439564
  WF centre and spread    3  ( -0.003648,  0.007193,  5.812200 )     2.60782285
  WF centre and spread    4  (  0.000484,  0.000986,  5.714078 )     2.03979668
  WF centre and spread    5  ( -0.005338, -0.002332,  5.631023 )     4.36643935
  WF centre and spread    6  (  1.677966, -0.002783,  2.734354 )     2.23530303
  WF centre and spread    7  (  1.686021, -0.004119,  2.952421 )     2.61615936
  WF centre and spread    8  (  1.683810,  0.032001,  2.870465 )     5.06076047
  WF centre and spread    9  (  1.680032,  0.001302,  2.855241 )     2.04121778
  WF centre and spread   10  (  1.670181, -0.013623,  2.779676 )     4.37514468
  WF centre and spread   11  (  1.678951,  1.680140,  4.660083 )     5.60326731
  WF centre and spread   12  (  1.679173,  1.691677,  4.829369 )     3.22089059
  WF centre and spread   13  (  1.702350,  1.665866,  4.709118 )     4.49217214
  WF centre and spread   14  (  0.012615,  1.665484,  1.827238 )     5.65875960
  WF centre and spread   15  ( -0.007774,  1.703479,  1.841125 )     4.51722531
  WF centre and spread   16  (  0.010254,  1.678040,  1.971123 )     3.22448424
  Sum of centres and spreads ( 13.501865, 10.101003, 62.520840 )    59.33203083
 
     10    -0.227E-01     0.4094632198       59.3320308340       0.92  <-- CONV
        O_D=      0.7132359 O_OD=     15.6976254 O_TOT=     59.3320308 <-- SPRD
 Delta: O_D=  0.2783836E-02 O_OD= -0.2550059E-01 O_TOT= -0.2271676E-01 <-- DLTA
 ------------------------------------------------------------------------------

 done

 Cycle:     20
  LINE --> Iteration                     :          20
  LINE --> Spread at initial point       :   58.8986935060812     
  LINE --> Spread at trial step          :   58.8985836685056     
  LINE --> Slope along search direction  : -5.503260216376341E-005
  LINE --> ||SD gradient||^2             :  1.480256382596647E-002
  LINE --> Trial step length             :   2.00000000000000     
  LINE --> Optimal parabolic step length :   483.529498159806     
  LINE --> Spread at predicted minimum   :   58.8853885628278     
  LINE --> CG coefficient                :  0.717278138121780     
  WF centre and spread    1  ( -0.002822, -0.001372,  5.587297 )     2.24292669
  WF centre and spread    2  (  0.049890, -0.002430,  5.735217 )     5.20439078
  WF centre and spread    3  ( -0.004108,  0.006829,  5.817190 )     2.59702522
  WF centre and spread    4  (  0.000886,  0.001022,  5.714979 )     2.04734214
  WF centre and spread    5  ( -0.004980, -0.002340,  5.634849 )     4.21636645
  WF centre and spread    6  (  1.677543, -0.003226,  2.730751 )     2.23963898
  WF centre and spread    7  (  1.687546, -0.004415,  2.954126 )     2.61802856
  WF centre and spread    8  (  1.682966,  0.043056,  2.870378 )     5.23108641
  WF centre and spread    9  (  1.680072,  0.001593,  2.856174 )     2.04981447
  WF centre and spread   10  (  1.673192, -0.014269,  2.779822 )     4.22109709
  WF centre and spread   11  (  1.677094,  1.678926,  4.657221 )     5.28185547
  WF centre and spread   12  (  1.678297,  1.693923,  4.832323 )     3.17010863
  WF centre and spread   13  (  1.714792,  1.664406,  4.710854 )     4.55562463
  WF centre and spread   14  (  0.011793,  1.666817,  1.811983 )     5.42796196
  WF centre and spread   15  ( -0.011390,  1.712785,  1.841903 )     4.58949241
  WF centre and spread   16  (  0.016885,  1.677097,  1.973020 )     3.19267774
  Sum of centres and spreads ( 13.527655, 10.118402, 62.508086 )    58.88543763
 
     20    -0.133E-01     0.1216657874       58.8854376316       2.04  <-- CONV
        O_D=      0.6923806 O_OD=     15.2718875 O_TOT=     58.8854376 <-- SPRD
 Delta: O_D= -0.4080355E-02 O_OD= -0.9175519E-02 O_TOT= -0.1325587E-01 <-- DLTA
 ------------------------------------------------------------------------------

 done

 Cycle:     30
  LINE --> Iteration                     :          30
  LINE --> Spread at initial point       :   58.8452251807620     
  LINE --> Spread at trial step          :   58.8452054291122     
  LINE --> Slope along search direction  : -9.890904035092737E-006
  LINE --> ||SD gradient||^2             :  2.669680493234583E-003
  LINE --> Trial step length             :   2.00000000000000     
  LINE --> Optimal parabolic step length :   655.932228917684     
  LINE --> Spread at predicted minimum   :   58.8419812993971     
  LINE --> CG coefficient                :   1.22193457830972     
  WF centre and spread    1  ( -0.003059, -0.001090,  5.586894 )     2.24285100
  WF centre and spread    2  (  0.053871, -0.000125,  5.733748 )     5.28909444
  WF centre and spread    3  ( -0.004708,  0.007307,  5.816521 )     2.60086775
  WF centre and spread    4  (  0.000496,  0.001339,  5.715220 )     2.04844040
  WF centre and spread    5  ( -0.005386, -0.003465,  5.636632 )     4.17621391
  WF centre and spread    6  (  1.677339, -0.002902,  2.729568 )     2.23996176
  WF centre and spread    7  (  1.687259, -0.004867,  2.955339 )     2.61027903
  WF centre and spread    8  (  1.681079,  0.052437,  2.867498 )     5.34396923
  WF centre and spread    9  (  1.679773,  0.001033,  2.856309 )     2.04930129
  WF centre and spread   10  (  1.674097, -0.010412,  2.780050 )     4.16835314
  WF centre and spread   11  (  1.675477,  1.681731,  4.660047 )     5.19374374
  WF centre and spread   12  (  1.677202,  1.695441,  4.833077 )     3.16405219
  WF centre and spread   13  (  1.719192,  1.666801,  4.711022 )     4.57051750
  WF centre and spread   14  (  0.007991,  1.671380,  1.808933 )     5.38463688
  WF centre and spread   15  ( -0.013110,  1.718830,  1.844248 )     4.58480662
  WF centre and spread   16  (  0.019506,  1.675292,  1.973689 )     3.17500768
  Sum of centres and spreads ( 13.527020, 10.148731, 62.508795 )    58.84209655
 
     30    -0.313E-02     0.0516689510       58.8420965481       3.16  <-- CONV
        O_D=      0.6779969 O_OD=     15.2429301 O_TOT=     58.8420965 <-- SPRD
 Delta: O_D= -0.3650130E-03 O_OD= -0.2763620E-02 O_TOT= -0.3128633E-02 <-- DLTA
 ------------------------------------------------------------------------------

 done

 Cycle:     40
  LINE --> Iteration                     :          40
  LINE --> Spread at initial point       :   58.8311387665774     
  LINE --> Spread at trial step          :   58.8311337474397     
  LINE --> Slope along search direction  : -2.513019605102750E-006
  LINE --> ||SD gradient||^2             :  6.739969883175012E-004
  LINE --> Trial step length             :   2.00000000000000     
  LINE --> Optimal parabolic step length :   728.253130968975     
  LINE --> Spread at predicted minimum   :   58.8302237093796     
  LINE --> CG coefficient                :  0.857351335316700     
  WF centre and spread    1  ( -0.002938, -0.001038,  5.586832 )     2.24366672
  WF centre and spread    2  (  0.054162,  0.000408,  5.733308 )     5.31671986
  WF centre and spread    3  ( -0.004835,  0.006844,  5.816051 )     2.60239319
  WF centre and spread    4  (  0.000382,  0.001396,  5.715237 )     2.04851362
  WF centre and spread    5  ( -0.005674, -0.003911,  5.636974 )     4.17280082
  WF centre and spread    6  (  1.677291, -0.002758,  2.729302 )     2.23973884
  WF centre and spread    7  (  1.686861, -0.005063,  2.955537 )     2.60883500
  WF centre and spread    8  (  1.680946,  0.054138,  2.865578 )     5.38227977
  WF centre and spread    9  (  1.679657,  0.000777,  2.856308 )     2.04936610
  WF centre and spread   10  (  1.674172, -0.009369,  2.780275 )     4.15937199
  WF centre and spread   11  (  1.675106,  1.682190,  4.660826 )     5.12972291
  WF centre and spread   12  (  1.676536,  1.695098,  4.833055 )     3.16284559
  WF centre and spread   13  (  1.720174,  1.668937,  4.711525 )     4.57919638
  WF centre and spread   14  (  0.007459,  1.672705,  1.809032 )     5.37929760
  WF centre and spread   15  ( -0.012862,  1.719980,  1.844604 )     4.58679385
  WF centre and spread   16  (  0.019748,  1.674016,  1.973868 )     3.16869354
  Sum of centres and spreads ( 13.526186, 10.154349, 62.508311 )    58.83023577
 
     40    -0.903E-03     0.0259614520       58.8302357680       4.29  <-- CONV
        O_D=      0.6795771 O_OD=     15.2294891 O_TOT=     58.8302358 <-- SPRD
 Delta: O_D=  0.8279435E-03 O_OD= -0.1730942E-02 O_TOT= -0.9029986E-03 <-- DLTA
 ------------------------------------------------------------------------------

 done

 Cycle:     50
  LINE --> Iteration                     :          50
  LINE --> Spread at initial point       :   58.8231672470019     
  LINE --> Spread at trial step          :   58.8231635366332     
  LINE --> Slope along search direction  : -1.857881548763626E-006
  LINE --> ||SD gradient||^2             :  4.986270804599425E-004
  LINE --> Trial step length             :   2.00000000000000     
  LINE --> Optimal parabolic step length :   688.823722940034     
  LINE --> Spread at predicted minimum   :   58.8225273705593     
  LINE --> CG coefficient                :  0.480691961755834     
  WF centre and spread    1  ( -0.002838, -0.001016,  5.586693 )     2.24471382
  WF centre and spread    2  (  0.055330,  0.000806,  5.732637 )     5.34426842
  WF centre and spread    3  ( -0.004874,  0.006342,  5.815814 )     2.60254670
  WF centre and spread    4  (  0.000327,  0.001424,  5.715253 )     2.04865310
  WF centre and spread    5  ( -0.005813, -0.003963,  5.637044 )     4.17198336
  WF centre and spread    6  (  1.677291, -0.002599,  2.729201 )     2.23959009
  WF centre and spread    7  (  1.686817, -0.005192,  2.955484 )     2.60899884
  WF centre and spread    8  (  1.681121,  0.055265,  2.863468 )     5.41703514
  WF centre and spread    9  (  1.679602,  0.000612,  2.856327 )     2.04982064
  WF centre and spread   10  (  1.674671, -0.008938,  2.780563 )     4.15137019
  WF centre and spread   11  (  1.674963,  1.683052,  4.660940 )     5.06133462
  WF centre and spread   12  (  1.675734,  1.694505,  4.833006 )     3.16216288
  WF centre and spread   13  (  1.721333,  1.671371,  4.711836 )     4.59514966
  WF centre and spread   14  (  0.008293,  1.673533,  1.809173 )     5.36081439
  WF centre and spread   15  ( -0.012005,  1.720514,  1.844199 )     4.59832524
  WF centre and spread   16  (  0.020087,  1.672726,  1.973994 )     3.16576117
  Sum of centres and spreads ( 13.530038, 10.158441, 62.505632 )    58.82252826
 
     50    -0.639E-03     0.0223299593       58.8225282617       5.42  <-- CONV
        O_D=      0.6816750 O_OD=     15.2196837 O_TOT=     58.8225283 <-- SPRD
[...]
      vector  -3   1  -2   degeneracy:  1
      vector  -3   1  -1   degeneracy:  1
      vector  -3   1   0   degeneracy:  1
      vector  -3   1   1   degeneracy:  1
      vector  -3   1   2   degeneracy:  1
      vector  -3   2  -2   degeneracy:  1
      vector  -3   2  -1   degeneracy:  1
      vector  -3   2   0   degeneracy:  1
      vector  -3   2   1   degeneracy:  1
      vector  -3   2   2   degeneracy:  1
      vector  -3   3  -2   degeneracy:  1
      vector  -3   3  -1   degeneracy:  1
      vector  -3   3   0   degeneracy:  1
      vector  -3   3   1   degeneracy:  1
      vector  -3   3   2   degeneracy:  1
      vector  -3   4  -2   degeneracy:  2
      vector  -3   4  -1   degeneracy:  1
      vector  -3   4   0   degeneracy:  1
      vector  -3   4   1   degeneracy:  1
      vector  -3   4   2   degeneracy:  1
      vector  -3   5   0   degeneracy:  2
      vector  -3   5   1   degeneracy:  1
      vector  -2  -6  -2   degeneracy:  2
      vector  -2  -5  -2   degeneracy:  1
      vector  -2  -5  -1   degeneracy:  1
      vector  -2  -5   0   degeneracy:  2
      vector  -2  -4  -3   degeneracy:  1
      vector  -2  -4  -2   degeneracy:  1
      vector  -2  -4  -1   degeneracy:  1
      vector  -2  -4   0   degeneracy:  1
      vector  -2  -4   1   degeneracy:  1
      vector  -2  -3  -3   degeneracy:  1
      vector  -2  -3  -2   degeneracy:  1
      vector  -2  -3  -1   degeneracy:  1
      vector  -2  -3   0   degeneracy:  1
      vector  -2  -3   1   degeneracy:  1
      vector  -2  -2  -3   degeneracy:  1
      vector  -2  -2  -2   degeneracy:  1
      vector  -2  -2  -1   degeneracy:  1
      vector  -2  -2   0   degeneracy:  1
      vector  -2  -2   1   degeneracy:  1
      vector  -2  -1  -2   degeneracy:  1
      vector  -2  -1  -1   degeneracy:  1
      vector  -2  -1   0   degeneracy:  1
      vector  -2  -1   1   degeneracy:  1
      vector  -2  -1   2   degeneracy:  1
      vector  -2   0  -2   degeneracy:  1
      vector  -2   0  -1   degeneracy:  1
      vector  -2   0   0   degeneracy:  1
      vector  -2   0   1   degeneracy:  1
      vector  -2   0   2   degeneracy:  1
      vector  -2   1  -2   degeneracy:  1
      vector  -2   1  -1   degeneracy:  1
      vector  -2   1   0   degeneracy:  1
      vector  -2   1   1   degeneracy:  1
      vector  -2   1   2   degeneracy:  1
      vector  -2   2  -2   degeneracy:  1
      vector  -2   2  -1   degeneracy:  1
      vector  -2   2   0   degeneracy:  1
      vector  -2   2   1   degeneracy:  1
      vector  -2   2   2   degeneracy:  1
      vector  -2   3  -2   degeneracy:  1
      vector  -2   3  -1   degeneracy:  1
      vector  -2   3   0   degeneracy:  1
      vector  -2   3   1   degeneracy:  1
      vector  -2   3   2   degeneracy:  1
      vector  -2   4  -2   degeneracy:  2
      vector  -2   4  -1   degeneracy:  1
      vector  -2   4   0   degeneracy:  1
      vector  -2   4   1   degeneracy:  1
      vector  -2   4   2   degeneracy:  1
      vector  -2   5   0   degeneracy:  2
      vector  -2   5   1   degeneracy:  1
      vector  -2   5   2   degeneracy:  1
      vector  -1  -6  -2   degeneracy:  2
      vector  -1  -5  -2   degeneracy:  1
      vector  -1  -5  -1   degeneracy:  1
      vector  -1  -5   0   degeneracy:  2
      vector  -1  -4  -3   degeneracy:  1
      vector  -1  -4  -2   degeneracy:  1
      vector  -1  -4  -1   degeneracy:  1
      vector  -1  -4   0   degeneracy:  1
      vector  -1  -4   1   degeneracy:  1
      vector  -1  -3  -3   degeneracy:  1
      vector  -1  -3  -2   degeneracy:  1
      vector  -1  -3  -1   degeneracy:  1
      vector  -1  -3   0   degeneracy:  1
      vector  -1  -3   1   degeneracy:  1
      vector  -1  -2  -2   degeneracy:  1
      vector  -1  -2  -1   degeneracy:  1
      vector  -1  -2   0   degeneracy:  1
      vector  -1  -2   1   degeneracy:  1
      vector  -1  -2   2   degeneracy:  1
      vector  -1  -1  -2   degeneracy:  1
      vector  -1  -1  -1   degeneracy:  1
      vector  -1  -1   0   degeneracy:  1
      vector  -1  -1   1   degeneracy:  1
      vector  -1  -1   2   degeneracy:  1
      vector  -1   0  -2   degeneracy:  1
      vector  -1   0  -1   degeneracy:  1
      vector  -1   0   0   degeneracy:  1
      vector  -1   0   1   degeneracy:  1
      vector  -1   0   2   degeneracy:  1
      vector  -1   1  -2   degeneracy:  1
      vector  -1   1  -1   degeneracy:  1
      vector  -1   1   0   degeneracy:  1
      vector  -1   1   1   degeneracy:  1
      vector  -1   1   2   degeneracy:  1
      vector  -1   2  -2   degeneracy:  1
      vector  -1   2  -1   degeneracy:  1
      vector  -1   2   0   degeneracy:  1
      vector  -1   2   1   degeneracy:  1
      vector  -1   2   2   degeneracy:  1
      vector  -1   3  -2   degeneracy:  1
      vector  -1   3  -1   degeneracy:  1
      vector  -1   3   0   degeneracy:  1
      vector  -1   3   1   degeneracy:  1
      vector  -1   3   2   degeneracy:  1
      vector  -1   4  -2   degeneracy:  2
      vector  -1   4  -1   degeneracy:  1
      vector  -1   4   0   degeneracy:  1
      vector  -1   4   1   degeneracy:  1
      vector  -1   4   2   degeneracy:  1
      vector  -1   5   0   degeneracy:  2
      vector  -1   5   1   degeneracy:  1
      vector  -1   5   2   degeneracy:  1
      vector   0  -5  -2   degeneracy:  1
      vector   0  -5  -1   degeneracy:  1
      vector   0  -5   0   degeneracy:  2
      vector   0  -4  -3   degeneracy:  1
      vector   0  -4  -2   degeneracy:  1
      vector   0  -4  -1   degeneracy:  1
      vector   0  -4   0   degeneracy:  1
      vector   0  -4   1   degeneracy:  1
      vector   0  -3  -2   degeneracy:  1
      vector   0  -3  -1   degeneracy:  1
      vector   0  -3   0   degeneracy:  1
      vector   0  -3   1   degeneracy:  1
      vector   0  -3   2   degeneracy:  1
      vector   0  -2  -2   degeneracy:  1
      vector   0  -2  -1   degeneracy:  1
      vector   0  -2   0   degeneracy:  1
      vector   0  -2   1   degeneracy:  1
      vector   0  -2   2   degeneracy:  1
      vector   0  -1  -2   degeneracy:  1
      vector   0  -1  -1   degeneracy:  1
      vector   0  -1   0   degeneracy:  1
      vector   0  -1   1   degeneracy:  1
      vector   0  -1   2   degeneracy:  1
      vector   0   0  -2   degeneracy:  1
      vector   0   0  -1   degeneracy:  1
      vector   0   0   0   degeneracy:  1
      vector   0   0   1   degeneracy:  1
      vector   0   0   2   degeneracy:  1
      vector   0   1  -2   degeneracy:  1
      vector   0   1  -1   degeneracy:  1
      vector   0   1   0   degeneracy:  1
      vector   0   1   1   degeneracy:  1
      vector   0   1   2   degeneracy:  1
      vector   0   2  -2   degeneracy:  1
      vector   0   2  -1   degeneracy:  1
      vector   0   2   0   degeneracy:  1
      vector   0   2   1   degeneracy:  1
      vector   0   2   2   degeneracy:  1
      vector   0   3  -2   degeneracy:  1
      vector   0   3  -1   degeneracy:  1
      vector   0   3   0   degeneracy:  1
      vector   0   3   1   degeneracy:  1
      vector   0   3   2   degeneracy:  1
      vector   0   4  -1   degeneracy:  1
      vector   0   4   0   degeneracy:  1
      vector   0   4   1   degeneracy:  1
      vector   0   4   2   degeneracy:  1
      vector   0   4   3   degeneracy:  1
      vector   0   5   0   degeneracy:  2
      vector   0   5   1   degeneracy:  1
      vector   0   5   2   degeneracy:  1
      vector   1  -5  -2   degeneracy:  1
      vector   1  -5  -1   degeneracy:  1
      vector   1  -5   0   degeneracy:  2
      vector   1  -4  -2   degeneracy:  1
      vector   1  -4  -1   degeneracy:  1
      vector   1  -4   0   degeneracy:  1
      vector   1  -4   1   degeneracy:  1
      vector   1  -4   2   degeneracy:  2
      vector   1  -3  -2   degeneracy:  1
      vector   1  -3  -1   degeneracy:  1
      vector   1  -3   0   degeneracy:  1
      vector   1  -3   1   degeneracy:  1
      vector   1  -3   2   degeneracy:  1
      vector   1  -2  -2   degeneracy:  1
      vector   1  -2  -1   degeneracy:  1
      vector   1  -2   0   degeneracy:  1
      vector   1  -2   1   degeneracy:  1
      vector   1  -2   2   degeneracy:  1
      vector   1  -1  -2   degeneracy:  1
      vector   1  -1  -1   degeneracy:  1
      vector   1  -1   0   degeneracy:  1
      vector   1  -1   1   degeneracy:  1
      vector   1  -1   2   degeneracy:  1
      vector   1   0  -2   degeneracy:  1
      vector   1   0  -1   degeneracy:  1
      vector   1   0   0   degeneracy:  1
      vector   1   0   1   degeneracy:  1
      vector   1   0   2   degeneracy:  1
      vector   1   1  -2   degeneracy:  1
      vector   1   1  -1   degeneracy:  1
      vector   1   1   0   degeneracy:  1
      vector   1   1   1   degeneracy:  1
      vector   1   1   2   degeneracy:  1
      vector   1   2  -2   degeneracy:  1
      vector   1   2  -1   degeneracy:  1
      vector   1   2   0   degeneracy:  1
      vector   1   2   1   degeneracy:  1
      vector   1   2   2   degeneracy:  1
      vector   1   3  -1   degeneracy:  1
      vector   1   3   0   degeneracy:  1
      vector   1   3   1   degeneracy:  1
      vector   1   3   2   degeneracy:  1
      vector   1   3   3   degeneracy:  1
      vector   1   4  -1   degeneracy:  1
      vector   1   4   0   degeneracy:  1
      vector   1   4   1   degeneracy:  1
      vector   1   4   2   degeneracy:  1
      vector   1   4   3   degeneracy:  1
      vector   1   5   0   degeneracy:  2
      vector   1   5   1   degeneracy:  1
      vector   1   5   2   degeneracy:  1
      vector   1   6   2   degeneracy:  2
      vector   2  -5  -2   degeneracy:  1
      vector   2  -5  -1   degeneracy:  1
      vector   2  -5   0   degeneracy:  2
      vector   2  -4  -2   degeneracy:  1
      vector   2  -4  -1   degeneracy:  1
      vector   2  -4   0   degeneracy:  1
      vector   2  -4   1   degeneracy:  1
      vector   2  -4   2   degeneracy:  2
      vector   2  -3  -2   degeneracy:  1
      vector   2  -3  -1   degeneracy:  1
      vector   2  -3   0   degeneracy:  1
      vector   2  -3   1   degeneracy:  1
      vector   2  -3   2   degeneracy:  1
      vector   2  -2  -2   degeneracy:  1
      vector   2  -2  -1   degeneracy:  1
      vector   2  -2   0   degeneracy:  1
      vector   2  -2   1   degeneracy:  1
      vector   2  -2   2   degeneracy:  1
      vector   2  -1  -2   degeneracy:  1
      vector   2  -1  -1   degeneracy:  1
      vector   2  -1   0   degeneracy:  1
      vector   2  -1   1   degeneracy:  1
      vector   2  -1   2   degeneracy:  1
      vector   2   0  -2   degeneracy:  1
      vector   2   0  -1   degeneracy:  1
      vector   2   0   0   degeneracy:  1
      vector   2   0   1   degeneracy:  1
      vector   2   0   2   degeneracy:  1
      vector   2   1  -2   degeneracy:  1
      vector   2   1  -1   degeneracy:  1
      vector   2   1   0   degeneracy:  1
      vector   2   1   1   degeneracy:  1
      vector   2   1   2   degeneracy:  1
      vector   2   2  -1   degeneracy:  1
      vector   2   2   0   degeneracy:  1
      vector   2   2   1   degeneracy:  1
      vector   2   2   2   degeneracy:  1
      vector   2   2   3   degeneracy:  1
      vector   2   3  -1   degeneracy:  1
      vector   2   3   0   degeneracy:  1
      vector   2   3   1   degeneracy:  1
      vector   2   3   2   degeneracy:  1
      vector   2   3   3   degeneracy:  1
      vector   2   4  -1   degeneracy:  1
      vector   2   4   0   degeneracy:  1
      vector   2   4   1   degeneracy:  1
      vector   2   4   2   degeneracy:  1
      vector   2   4   3   degeneracy:  1
      vector   2   5   0   degeneracy:  2
      vector   2   5   1   degeneracy:  1
      vector   2   5   2   degeneracy:  1
      vector   2   6   2   degeneracy:  2
      vector   3  -5  -1   degeneracy:  1
      vector   3  -5   0   degeneracy:  2
      vector   3  -4  -2   degeneracy:  1
      vector   3  -4  -1   degeneracy:  1
      vector   3  -4   0   degeneracy:  1
      vector   3  -4   1   degeneracy:  1
      vector   3  -4   2   degeneracy:  2
      vector   3  -3  -2   degeneracy:  1
      vector   3  -3  -1   degeneracy:  1
      vector   3  -3   0   degeneracy:  1
      vector   3  -3   1   degeneracy:  1
      vector   3  -3   2   degeneracy:  1
      vector   3  -2  -2   degeneracy:  1
      vector   3  -2  -1   degeneracy:  1
      vector   3  -2   0   degeneracy:  1
      vector   3  -2   1   degeneracy:  1
      vector   3  -2   2   degeneracy:  1
      vector   3  -1  -2   degeneracy:  1
      vector   3  -1  -1   degeneracy:  1
      vector   3  -1   0   degeneracy:  1
      vector   3  -1   1   degeneracy:  1
      vector   3  -1   2   degeneracy:  1
      vector   3   0  -2   degeneracy:  1
      vector   3   0  -1   degeneracy:  1
      vector   3   0   0   degeneracy:  1
      vector   3   0   1   degeneracy:  1
      vector   3   0   2   degeneracy:  1
      vector   3   1  -1   degeneracy:  1
      vector   3   1   0   degeneracy:  1
      vector   3   1   1   degeneracy:  1
      vector   3   1   2   degeneracy:  1
      vector   3   1   3   degeneracy:  1
      vector   3   2  -1   degeneracy:  1
      vector   3   2   0   degeneracy:  1
      vector   3   2   1   degeneracy:  1
      vector   3   2   2   degeneracy:  1
      vector   3   2   3   degeneracy:  1
      vector   3   3  -1   degeneracy:  1
      vector   3   3   0   degeneracy:  1
      vector   3   3   1   degeneracy:  1
      vector   3   3   2   degeneracy:  1
      vector   3   3   3   degeneracy:  1
      vector   3   4  -1   degeneracy:  1
      vector   3   4   0   degeneracy:  1
      vector   3   4   1   degeneracy:  1
      vector   3   4   2   degeneracy:  1
      vector   3   4   3   degeneracy:  1
      vector   3   5   0   degeneracy:  2
      vector   3   5   1   degeneracy:  1
      vector   3   5   2   degeneracy:  1
      vector   3   5   3   degeneracy:  1
      vector   3   6   2   degeneracy:  2
      vector   4  -5  -1   degeneracy:  1
      vector   4  -5   0   degeneracy:  2
      vector   4  -4  -2   degeneracy:  2
      vector   4  -4  -1   degeneracy:  1
      vector   4  -4   0   degeneracy:  1
      vector   4  -4   1   degeneracy:  1
      vector   4  -4   2   degeneracy:  2
      vector   4  -3  -2   degeneracy:  2
      vector   4  -3  -1   degeneracy:  1
      vector   4  -3   0   degeneracy:  1
      vector   4  -3   1   degeneracy:  1
      vector   4  -3   2   degeneracy:  1
      vector   4  -2  -2   degeneracy:  2
      vector   4  -2  -1   degeneracy:  1
      vector   4  -2   0   degeneracy:  1
      vector   4  -2   1   degeneracy:  1
      vector   4  -2   2   degeneracy:  1
      vector   4  -1  -2   degeneracy:  2
      vector   4  -1  -1   degeneracy:  1
      vector   4  -1   0   degeneracy:  1
      vector   4  -1   1   degeneracy:  1
      vector   4  -1   2   degeneracy:  1
      vector   4   0  -1   degeneracy:  1
      vector   4   0   0   degeneracy:  1
      vector   4   0   1   degeneracy:  1
      vector   4   0   2   degeneracy:  1
      vector   4   0   3   degeneracy:  1
      vector   4   1  -1   degeneracy:  1
      vector   4   1   0   degeneracy:  1
      vector   4   1   1   degeneracy:  1
      vector   4   1   2   degeneracy:  1
      vector   4   1   3   degeneracy:  1
      vector   4   2  -1   degeneracy:  1
      vector   4   2   0   degeneracy:  1
      vector   4   2   1   degeneracy:  1
      vector   4   2   2   degeneracy:  1
      vector   4   2   3   degeneracy:  1
      vector   4   3  -1   degeneracy:  1
      vector   4   3   0   degeneracy:  1
      vector   4   3   1   degeneracy:  1
      vector   4   3   2   degeneracy:  1
      vector   4   3   3   degeneracy:  1
      vector   4   4  -1   degeneracy:  1
      vector   4   4   0   degeneracy:  1
      vector   4   4   1   degeneracy:  1
      vector   4   4   2   degeneracy:  1
      vector   4   4   3   degeneracy:  1
      vector   4   5   0   degeneracy:  2
      vector   4   5   1   degeneracy:  1
      vector   4   5   2   degeneracy:  1
      vector   4   5   3   degeneracy:  1
      vector   4   6   2   degeneracy:  2
      vector   5  -5   0   degeneracy:  4
      vector   5  -4   0   degeneracy:  2
      vector   5  -4   1   degeneracy:  1
      vector   5  -3   0   degeneracy:  2
      vector   5  -3   1   degeneracy:  1
      vector   5  -2   0   degeneracy:  2
      vector   5  -2   1   degeneracy:  1
      vector   5  -2   2   degeneracy:  1
      vector   5  -1   0   degeneracy:  2
      vector   5  -1   1   degeneracy:  1
      vector   5  -1   2   degeneracy:  1
      vector   5   0   0   degeneracy:  2
      vector   5   0   1   degeneracy:  1
      vector   5   0   2   degeneracy:  1
      vector   5   1   0   degeneracy:  2
      vector   5   1   1   degeneracy:  1
      vector   5   1   2   degeneracy:  1
      vector   5   2   0   degeneracy:  2
      vector   5   2   1   degeneracy:  1
      vector   5   2   2   degeneracy:  1
      vector   5   3   0   degeneracy:  2
      vector   5   3   1   degeneracy:  1
      vector   5   3   2   degeneracy:  1
      vector   5   3   3   degeneracy:  1
      vector   5   4   0   degeneracy:  2
      vector   5   4   1   degeneracy:  1
      vector   5   4   2   degeneracy:  1
      vector   5   4   3   degeneracy:  1
      vector   5   5   0   degeneracy:  4
      vector   5   5   1   degeneracy:  1
      vector   5   5   2   degeneracy:  1
      vector   6   1   2   degeneracy:  2
      vector   6   2   2   degeneracy:  2
      vector   6   3   2   degeneracy:  2
      vector   6   4   2   degeneracy:  2
  tot =      500.000
  mp_grid product =          500
 
 Calculating interpolated band-structure
 
 Time to calculate interpolated band structure       4.645 (sec)
 
      Wannier Function Num:    1       Maximum Im/Re Ratio =    4.978544
      Wannier Function Num:    2       Maximum Im/Re Ratio =   15.775804
      Wannier Function Num:    3       Maximum Im/Re Ratio =   10.534794
      Wannier Function Num:    4       Maximum Im/Re Ratio =    4.959066
      Wannier Function Num:    5       Maximum Im/Re Ratio =   27.991655
      Wannier Function Num:    6       Maximum Im/Re Ratio =    3.568532
      Wannier Function Num:    7       Maximum Im/Re Ratio =   13.973928
      Wannier Function Num:    8       Maximum Im/Re Ratio =   18.240808
      Wannier Function Num:    9       Maximum Im/Re Ratio =   10.358042
      Wannier Function Num:   10       Maximum Im/Re Ratio =   18.916948
      Wannier Function Num:   11       Maximum Im/Re Ratio =   16.164806
      Wannier Function Num:   12       Maximum Im/Re Ratio =   10.424623
      Wannier Function Num:   13       Maximum Im/Re Ratio =    8.487224
      Wannier Function Num:   14       Maximum Im/Re Ratio =   17.200886
      Wannier Function Num:   15       Maximum Im/Re Ratio =    8.104198
      Wannier Function Num:   16       Maximum Im/Re Ratio =    8.527773
  
 Time for plotting           1286.337 (sec)
 Total Execution Time        1363.905 (sec)

 *===========================================================================*
 |                             TIMING INFORMATION                            |
 *===========================================================================*
 |    Tag                                                Ncalls      Time (s)|
 |---------------------------------------------------------------------------|
 |kmesh: get                                        :         1         0.203|
 |overlap: allocate                                 :         1         0.010|
 |overlap: read                                     :         1         0.897|
 |wann: main                                        :         1        76.399|
 |plot: main                                        :         1      1286.337|
 *---------------------------------------------------------------------------*
 
 All done: wannier90 exiting
