
     Program PWSCF v.7.2 starts on 20Feb2024 at 16:57:56 

     This program is part of the open-source Quantum ESPRESSO suite
     for quantum simulation of materials; please cite
         "P. Giannozzi et al., J. Phys.:Condens. Matter 21 395502 (2009);
         "P. Giannozzi et al., J. Phys.:Condens. Matter 29 465901 (2017);
         "P. Giannozzi et al., J. Chem. Phys. 152 154105 (2020);
          URL http://www.quantum-espresso.org", 
     in publications or presentations arising from this work. More details at
     http://www.quantum-espresso.org/quote

     Parallel version (MPI), running on     1 processors

     MPI processes distributed on     1 nodes
     187361 MiB available memory on the printing compute node when the environment starts
 
     Waiting for input...
     Reading input from standard input

     Current dimensions of program PWSCF are:
     Max number of different atomic species (ntypx) = 10
     Max number of k-points (npk) =  40000
     Max angular momentum in pseudopotentials (lmaxx) =  4
     file Nb.pbesol-spn-kjpaw_psl.0.3.0.UPF: wavefunction(s)  4S 4P renormalized
     Message from routine setup:
     using ibrav=0 with symmetry is DISCOURAGED, use correct ibrav instead
 
     Subspace diagonalization in iterative solution of the eigenvalue problem:
     a serial algorithm will be used

 
     G-vector sticks info
     --------------------
     sticks:   dense  smooth     PW     G-vecs:    dense   smooth      PW
     Sum        1033     509    161                41977    14855    2585
 
     Using Slab Decomposition
 


     bravais-lattice index     =            0
     lattice parameter (alat)  =       6.3427  a.u.
     unit-cell volume          =     434.7255 (a.u.)^3
     number of atoms/cell      =            4
     number of atomic types    =            2
     number of electrons       =        36.00
     number of Kohn-Sham states=           26
     kinetic-energy cutoff     =      40.0000  Ry
     charge density cutoff     =     320.0000  Ry
     scf convergence threshold =      8.0E-10
     mixing beta               =       0.4000
     number of iterations used =            8  plain     mixing
     Exchange-correlation= PBESOL
                           (   1   4  10   8   0   0   0)

     celldm(1)=   6.342749  celldm(2)=   0.000000  celldm(3)=   0.000000
     celldm(4)=   0.000000  celldm(5)=   0.000000  celldm(6)=   0.000000

     crystal axes: (cart. coord. in units of alat)
               a(1) = (   1.000000   0.000000   0.000000 )  
               a(2) = (   0.000000   1.000000   0.000000 )  
               a(3) = (  -0.500000  -0.500000   1.703659 )  

     reciprocal axes: (cart. coord. in units 2 pi/alat)
               b(1) = (  1.000000  0.000000  0.293486 )  
               b(2) = (  0.000000  1.000000  0.293486 )  
               b(3) = (  0.000000  0.000000  0.586972 )  


     PseudoPot. # 1 for Nb read from file:
     ./pseudo/Nb.pbesol-spn-kjpaw_psl.0.3.0.UPF
     MD5 check sum: 3501bca1474143575298708b2d32ca28
     Pseudo is Projector augmented-wave + core cor, Zval = 13.0
     Generated using "atomic" code by A. Dal Corso  v.6.0 svn rev. 13079
     Shape of augmentation charge: PSQ
     Using radial grid of 1227 points,  6 beta functions with: 
                l(1) =   0
                l(2) =   0
                l(3) =   1
                l(4) =   1
                l(5) =   2
                l(6) =   2
     Q(r) pseudized with 0 coefficients 


     PseudoPot. # 2 for P  read from file:
     ./pseudo/P.pbesol-n-rrkjus_psl.1.0.0.UPF
     MD5 check sum: bbb94b1b16383820d6a769669b5d42db
     Pseudo is Ultrasoft + core correction, Zval =  5.0
     Generated using "atomic" code by A. Dal Corso  v.6.0 svn rev. 13079
     Using radial grid of 1147 points,  6 beta functions with: 
                l(1) =   0
                l(2) =   0
                l(3) =   1
                l(4) =   1
                l(5) =   2
                l(6) =   2
     Q(r) pseudized with 0 coefficients 


     atomic species   valence    mass     pseudopotential
        Nb            13.00    92.90638     Nb( 1.00)
        P              5.00    30.97376     P ( 1.00)

      8 Sym. Ops. (no inversion) found ( 4 have fractional translation)


                                    s                        frac. trans.

      isym =  1     identity                                     

 cryst.   s( 1) = (     1          0          0      )
                  (     0          1          0      )
                  (     0          0          1      )

 cart.    s( 1) = (  1.0000000  0.0000000  0.0000000 )
                  (  0.0000000  1.0000000  0.0000000 )
                  (  0.0000000  0.0000000  1.0000000 )


      isym =  2     180 deg rotation - cart. axis [0,0,1]        

 cryst.   s( 2) = (    -1          0          0      )
                  (     0         -1          0      )
                  (     1          1          1      )

 cart.    s( 2) = ( -1.0000000  0.0000000  0.0000000 )
                  (  0.0000000 -1.0000000  0.0000000 )
                  (  0.0000000  0.0000000  1.0000000 )


      isym =  3      90 deg rotation - cart. axis [0,0,-1]       

 cryst.   s( 3) = (     0         -1          0      )    f =( -0.2500000 )
                  (     1          0          0      )       (  0.2500000 )
                  (     0          1          1      )       (  0.5000000 )

 cart.    s( 3) = (  0.0000000  1.0000000  0.0000000 )    f =( -0.5000000 )
                  ( -1.0000000  0.0000000  0.0000000 )       (  0.0000000 )
                  (  0.0000000  0.0000000  1.0000000 )       (  0.8518294 )


      isym =  4      90 deg rotation - cart. axis [0,0,1]        

 cryst.   s( 4) = (     0          1          0      )    f =( -0.2500000 )
                  (    -1          0          0      )       (  0.2500000 )
                  (     1          0          1      )       (  0.5000000 )

 cart.    s( 4) = (  0.0000000 -1.0000000  0.0000000 )    f =( -0.5000000 )
                  (  1.0000000  0.0000000  0.0000000 )       (  0.0000000 )
                  (  0.0000000  0.0000000  1.0000000 )       (  0.8518294 )


      isym =  5     inv. 180 deg rotation - cart. axis [0,1,0]   

 cryst.   s( 5) = (     1          0          0      )
                  (     0         -1          0      )
                  (     0          1          1      )

 cart.    s( 5) = (  1.0000000  0.0000000  0.0000000 )
                  (  0.0000000 -1.0000000  0.0000000 )
                  (  0.0000000  0.0000000  1.0000000 )


      isym =  6     inv. 180 deg rotation - cart. axis [1,0,0]   

 cryst.   s( 6) = (    -1          0          0      )
                  (     0          1          0      )
                  (     1          0          1      )

 cart.    s( 6) = ( -1.0000000  0.0000000  0.0000000 )
                  (  0.0000000  1.0000000  0.0000000 )
                  (  0.0000000  0.0000000  1.0000000 )


      isym =  7     inv. 180 deg rotation - cart. axis [1,1,0]   

 cryst.   s( 7) = (     0         -1          0      )    f =( -0.2500000 )
                  (    -1          0          0      )       (  0.2500000 )
                  (     1          1          1      )       (  0.5000000 )

 cart.    s( 7) = (  0.0000000 -1.0000000  0.0000000 )    f =( -0.5000000 )
                  ( -1.0000000  0.0000000  0.0000000 )       (  0.0000000 )
                  (  0.0000000  0.0000000  1.0000000 )       (  0.8518294 )


      isym =  8     inv. 180 deg rotation - cart. axis [1,-1,0]  

 cryst.   s( 8) = (     0          1          0      )    f =( -0.2500000 )
                  (     1          0          0      )       (  0.2500000 )
                  (     0          0          1      )       (  0.5000000 )

 cart.    s( 8) = (  0.0000000  1.0000000  0.0000000 )    f =( -0.5000000 )
                  (  1.0000000  0.0000000  0.0000000 )       (  0.0000000 )
                  (  0.0000000  0.0000000  1.0000000 )       (  0.8518294 )


   Cartesian axes

     site n.     atom                  positions (alat units)
         1           Nb  tau(   1) = (   0.0000000   0.0000000   1.7033964  )
         2           Nb  tau(   2) = (   0.5000000   0.0000000   0.8515670  )
         3           P   tau(   3) = (   0.5000000   0.5000000   1.4223745  )
         4           P   tau(   4) = (   0.0000000   0.5000000   0.5705451  )

   Crystallographic axes

     site n.     atom                  positions (cryst. coord.)
         1           Nb  tau(   1) = (  0.4999230  0.4999230  0.9998460  )
         2           Nb  tau(   2) = (  0.7499230  0.2499230  0.4998460  )
         3           P   tau(   3) = (  0.9174470  0.9174470  0.8348940  )
         4           P   tau(   4) = (  0.1674470  0.6674470  0.3348940  )

     number of k points=    84  Marzari-Vanderbilt smearing, width (Ry)=  0.0073
                       cart. coord. in units 2pi/alat
        k(    1) = (   0.0000000   0.0000000   0.0000000), wk =   0.0040000
        k(    2) = (   0.0000000   0.0000000   0.1173944), wk =   0.0080000
        k(    3) = (   0.0000000   0.0000000   0.2347888), wk =   0.0080000
        k(    4) = (   0.0000000   0.1000000   0.0293486), wk =   0.0160000
        k(    5) = (   0.0000000   0.1000000   0.1467430), wk =   0.0160000
        k(    6) = (   0.0000000   0.1000000   0.2641374), wk =   0.0160000
        k(    7) = (   0.0000000   0.1000000  -0.2054402), wk =   0.0160000
        k(    8) = (   0.0000000   0.1000000  -0.0880458), wk =   0.0160000
        k(    9) = (   0.0000000   0.2000000   0.0586972), wk =   0.0320000
        k(   10) = (   0.0000000   0.2000000   0.1760916), wk =   0.0320000
        k(   11) = (   0.0000000   0.2000000   0.2934860), wk =   0.0160000
        k(   12) = (   0.0000000   0.3000000   0.0880458), wk =   0.0160000
        k(   13) = (   0.0000000   0.3000000   0.2054402), wk =   0.0160000
        k(   14) = (   0.0000000   0.3000000   0.3228346), wk =   0.0160000
        k(   15) = (   0.0000000   0.3000000  -0.1467430), wk =   0.0160000
        k(   16) = (   0.0000000   0.3000000  -0.0293486), wk =   0.0160000
        k(   17) = (   0.0000000   0.4000000   0.1173944), wk =   0.0320000
        k(   18) = (   0.0000000   0.4000000   0.2347888), wk =   0.0320000
        k(   19) = (   0.0000000   0.4000000   0.0000000), wk =   0.0160000
        k(   20) = (   0.0000000  -0.5000000  -0.1467430), wk =   0.0080000
        k(   21) = (   0.0000000  -0.5000000  -0.0293486), wk =   0.0160000
        k(   22) = (   0.0000000  -0.5000000   0.0880458), wk =   0.0160000
        k(   23) = (   0.1000000   0.1000000   0.0586972), wk =   0.0160000
        k(   24) = (   0.1000000   0.1000000   0.1760916), wk =   0.0160000
        k(   25) = (   0.1000000   0.1000000   0.2934860), wk =   0.0080000
        k(   26) = (   0.1000000   0.2000000   0.0880458), wk =   0.0320000
        k(   27) = (   0.1000000   0.2000000   0.2054402), wk =   0.0320000
        k(   28) = (   0.1000000   0.2000000   0.3228346), wk =   0.0320000
        k(   29) = (   0.1000000   0.2000000  -0.1467430), wk =   0.0320000
        k(   30) = (   0.1000000   0.2000000  -0.0293486), wk =   0.0320000
        k(   31) = (   0.1000000   0.3000000   0.1173944), wk =   0.0320000
        k(   32) = (   0.1000000   0.3000000   0.2347888), wk =   0.0320000
        k(   33) = (   0.1000000   0.3000000   0.0000000), wk =   0.0160000
        k(   34) = (   0.1000000   0.4000000   0.1467430), wk =   0.0320000
        k(   35) = (   0.1000000   0.4000000   0.2641374), wk =   0.0320000
        k(   36) = (   0.1000000   0.4000000   0.3815318), wk =   0.0320000
        k(   37) = (   0.1000000   0.4000000  -0.0880458), wk =   0.0320000
        k(   38) = (   0.1000000   0.4000000   0.0293486), wk =   0.0320000
        k(   39) = (   0.1000000  -0.5000000  -0.1173944), wk =   0.0320000
        k(   40) = (   0.1000000  -0.5000000   0.0000000), wk =   0.0160000
        k(   41) = (   0.1000000  -0.5000000  -0.3521832), wk =   0.0320000
        k(   42) = (   0.1000000  -0.3000000  -0.0586972), wk =   0.0320000
        k(   43) = (   0.1000000  -0.3000000   0.1760916), wk =   0.0320000
        k(   44) = (   0.1000000  -0.3000000  -0.2934860), wk =   0.0160000
        k(   45) = (   0.1000000  -0.1000000   0.0000000), wk =   0.0080000
        k(   46) = (   0.1000000  -0.1000000   0.1173944), wk =   0.0160000
        k(   47) = (   0.1000000  -0.1000000   0.2347888), wk =   0.0160000
        k(   48) = (   0.2000000   0.2000000   0.1173944), wk =   0.0320000
        k(   49) = (   0.2000000   0.2000000   0.2347888), wk =   0.0320000
        k(   50) = (   0.2000000   0.2000000   0.0000000), wk =   0.0160000
        k(   51) = (   0.2000000   0.3000000   0.1467430), wk =   0.0320000
        k(   52) = (   0.2000000   0.3000000   0.2641374), wk =   0.0320000
        k(   53) = (   0.2000000   0.3000000   0.3815318), wk =   0.0320000
        k(   54) = (   0.2000000   0.3000000  -0.0880458), wk =   0.0320000
        k(   55) = (   0.2000000   0.3000000   0.0293486), wk =   0.0320000
        k(   56) = (   0.2000000   0.4000000   0.1760916), wk =   0.0640000
        k(   57) = (   0.2000000   0.4000000   0.2934860), wk =   0.0320000
        k(   58) = (   0.2000000   0.4000000  -0.0586972), wk =   0.0640000
        k(   59) = (   0.2000000  -0.5000000  -0.0880458), wk =   0.0320000
        k(   60) = (   0.2000000  -0.5000000   0.0293486), wk =   0.0320000
        k(   61) = (   0.2000000  -0.5000000   0.1467430), wk =   0.0160000
        k(   62) = (   0.3000000   0.3000000   0.1760916), wk =   0.0160000
        k(   63) = (   0.3000000   0.3000000   0.2934860), wk =   0.0080000
        k(   64) = (   0.3000000   0.3000000  -0.0586972), wk =   0.0160000
        k(   65) = (   0.3000000   0.4000000   0.2054402), wk =   0.0320000
        k(   66) = (   0.3000000   0.4000000   0.3228346), wk =   0.0320000
        k(   67) = (   0.3000000   0.4000000   0.4402290), wk =   0.0320000
        k(   68) = (   0.3000000   0.4000000  -0.0293486), wk =   0.0320000
        k(   69) = (   0.3000000   0.4000000   0.0880458), wk =   0.0320000
        k(   70) = (   0.3000000  -0.5000000  -0.0586972), wk =   0.0320000
        k(   71) = (   0.3000000  -0.5000000   0.1760916), wk =   0.0320000
        k(   72) = (   0.3000000  -0.5000000  -0.2934860), wk =   0.0160000
        k(   73) = (   0.3000000  -0.3000000  -0.0000000), wk =   0.0080000
        k(   74) = (   0.3000000  -0.3000000   0.1173944), wk =   0.0160000
        k(   75) = (   0.3000000  -0.3000000   0.2347888), wk =   0.0160000
        k(   76) = (   0.4000000   0.4000000   0.2347888), wk =   0.0320000
        k(   77) = (   0.4000000   0.4000000   0.4695776), wk =   0.0320000
        k(   78) = (   0.4000000   0.4000000   0.0000000), wk =   0.0160000
        k(   79) = (   0.4000000  -0.5000000  -0.0293486), wk =   0.0320000
        k(   80) = (   0.4000000  -0.5000000   0.0880458), wk =   0.0320000
        k(   81) = (   0.4000000  -0.5000000  -0.1467430), wk =   0.0160000
        k(   82) = (  -0.5000000  -0.5000000  -0.2934860), wk =   0.0040000
        k(   83) = (  -0.5000000  -0.5000000  -0.1760916), wk =   0.0080000
        k(   84) = (  -0.5000000  -0.5000000  -0.0586972), wk =   0.0080000

                       cryst. coord.
        k(    1) = (   0.0000000   0.0000000   0.0000000), wk =   0.0040000
        k(    2) = (   0.0000000   0.0000000   0.2000000), wk =   0.0080000
        k(    3) = (   0.0000000   0.0000000   0.4000000), wk =   0.0080000
        k(    4) = (   0.0000000   0.1000000   0.0000000), wk =   0.0160000
        k(    5) = (   0.0000000   0.1000000   0.2000000), wk =   0.0160000
        k(    6) = (   0.0000000   0.1000000   0.4000000), wk =   0.0160000
        k(    7) = (   0.0000000   0.1000000  -0.4000000), wk =   0.0160000
        k(    8) = (   0.0000000   0.1000000  -0.2000000), wk =   0.0160000
        k(    9) = (   0.0000000   0.2000000   0.0000000), wk =   0.0320000
        k(   10) = (   0.0000000   0.2000000   0.2000000), wk =   0.0320000
        k(   11) = (   0.0000000   0.2000000   0.4000000), wk =   0.0160000
        k(   12) = (   0.0000000   0.3000000   0.0000000), wk =   0.0160000
        k(   13) = (   0.0000000   0.3000000   0.2000000), wk =   0.0160000
        k(   14) = (   0.0000000   0.3000000   0.4000000), wk =   0.0160000
        k(   15) = (   0.0000000   0.3000000  -0.4000000), wk =   0.0160000
        k(   16) = (   0.0000000   0.3000000  -0.2000000), wk =   0.0160000
        k(   17) = (   0.0000000   0.4000000   0.0000000), wk =   0.0320000
        k(   18) = (   0.0000000   0.4000000   0.2000000), wk =   0.0320000
        k(   19) = (   0.0000000   0.4000000  -0.2000000), wk =   0.0160000
        k(   20) = (   0.0000000  -0.5000000   0.0000000), wk =   0.0080000
        k(   21) = (   0.0000000  -0.5000000   0.2000000), wk =   0.0160000
        k(   22) = (   0.0000000  -0.5000000   0.4000000), wk =   0.0160000
        k(   23) = (   0.1000000   0.1000000   0.0000000), wk =   0.0160000
        k(   24) = (   0.1000000   0.1000000   0.2000000), wk =   0.0160000
        k(   25) = (   0.1000000   0.1000000   0.4000000), wk =   0.0080000
        k(   26) = (   0.1000000   0.2000000   0.0000000), wk =   0.0320000
        k(   27) = (   0.1000000   0.2000000   0.2000000), wk =   0.0320000
        k(   28) = (   0.1000000   0.2000000   0.4000000), wk =   0.0320000
        k(   29) = (   0.1000000   0.2000000  -0.4000000), wk =   0.0320000
        k(   30) = (   0.1000000   0.2000000  -0.2000000), wk =   0.0320000
        k(   31) = (   0.1000000   0.3000000   0.0000000), wk =   0.0320000
        k(   32) = (   0.1000000   0.3000000   0.2000000), wk =   0.0320000
        k(   33) = (   0.1000000   0.3000000  -0.2000000), wk =   0.0160000
        k(   34) = (   0.1000000   0.4000000   0.0000000), wk =   0.0320000
        k(   35) = (   0.1000000   0.4000000   0.2000000), wk =   0.0320000
        k(   36) = (   0.1000000   0.4000000   0.4000000), wk =   0.0320000
        k(   37) = (   0.1000000   0.4000000  -0.4000000), wk =   0.0320000
        k(   38) = (   0.1000000   0.4000000  -0.2000000), wk =   0.0320000
        k(   39) = (   0.1000000  -0.5000000   0.0000000), wk =   0.0320000
        k(   40) = (   0.1000000  -0.5000000   0.2000000), wk =   0.0160000
        k(   41) = (   0.1000000  -0.5000000  -0.4000000), wk =   0.0320000
        k(   42) = (   0.1000000  -0.3000000   0.0000000), wk =   0.0320000
        k(   43) = (   0.1000000  -0.3000000   0.4000000), wk =   0.0320000
        k(   44) = (   0.1000000  -0.3000000  -0.4000000), wk =   0.0160000
        k(   45) = (   0.1000000  -0.1000000  -0.0000000), wk =   0.0080000
        k(   46) = (   0.1000000  -0.1000000   0.2000000), wk =   0.0160000
        k(   47) = (   0.1000000  -0.1000000   0.4000000), wk =   0.0160000
        k(   48) = (   0.2000000   0.2000000   0.0000000), wk =   0.0320000
        k(   49) = (   0.2000000   0.2000000   0.2000000), wk =   0.0320000
        k(   50) = (   0.2000000   0.2000000  -0.2000000), wk =   0.0160000
        k(   51) = (   0.2000000   0.3000000   0.0000000), wk =   0.0320000
        k(   52) = (   0.2000000   0.3000000   0.2000000), wk =   0.0320000
        k(   53) = (   0.2000000   0.3000000   0.4000000), wk =   0.0320000
        k(   54) = (   0.2000000   0.3000000  -0.4000000), wk =   0.0320000
        k(   55) = (   0.2000000   0.3000000  -0.2000000), wk =   0.0320000
        k(   56) = (   0.2000000   0.4000000   0.0000000), wk =   0.0640000
        k(   57) = (   0.2000000   0.4000000   0.2000000), wk =   0.0320000
        k(   58) = (   0.2000000   0.4000000  -0.4000000), wk =   0.0640000
        k(   59) = (   0.2000000  -0.5000000   0.0000000), wk =   0.0320000
        k(   60) = (   0.2000000  -0.5000000   0.2000000), wk =   0.0320000
        k(   61) = (   0.2000000  -0.5000000   0.4000000), wk =   0.0160000
        k(   62) = (   0.3000000   0.3000000   0.0000000), wk =   0.0160000
        k(   63) = (   0.3000000   0.3000000   0.2000000), wk =   0.0080000
        k(   64) = (   0.3000000   0.3000000  -0.4000000), wk =   0.0160000
        k(   65) = (   0.3000000   0.4000000   0.0000000), wk =   0.0320000
        k(   66) = (   0.3000000   0.4000000   0.2000000), wk =   0.0320000
        k(   67) = (   0.3000000   0.4000000   0.4000000), wk =   0.0320000
        k(   68) = (   0.3000000   0.4000000  -0.4000000), wk =   0.0320000
        k(   69) = (   0.3000000   0.4000000  -0.2000000), wk =   0.0320000
        k(   70) = (   0.3000000  -0.5000000   0.0000000), wk =   0.0320000
        k(   71) = (   0.3000000  -0.5000000   0.4000000), wk =   0.0320000
        k(   72) = (   0.3000000  -0.5000000  -0.4000000), wk =   0.0160000
        k(   73) = (   0.3000000  -0.3000000   0.0000000), wk =   0.0080000
        k(   74) = (   0.3000000  -0.3000000   0.2000000), wk =   0.0160000
        k(   75) = (   0.3000000  -0.3000000   0.4000000), wk =   0.0160000
        k(   76) = (   0.4000000   0.4000000   0.0000000), wk =   0.0320000
        k(   77) = (   0.4000000   0.4000000   0.4000000), wk =   0.0320000
        k(   78) = (   0.4000000   0.4000000  -0.4000000), wk =   0.0160000
        k(   79) = (   0.4000000  -0.5000000  -0.0000000), wk =   0.0320000
        k(   80) = (   0.4000000  -0.5000000   0.2000000), wk =   0.0320000
        k(   81) = (   0.4000000  -0.5000000  -0.2000000), wk =   0.0160000
        k(   82) = (  -0.5000000  -0.5000000   0.0000000), wk =   0.0040000
        k(   83) = (  -0.5000000  -0.5000000   0.2000000), wk =   0.0080000
        k(   84) = (  -0.5000000  -0.5000000   0.4000000), wk =   0.0080000

     Dense  grid:    41977 G-vectors     FFT dimensions: (  40,  40,  72)

     Smooth grid:    14855 G-vectors     FFT dimensions: (  32,  32,  48)

     Dynamical RAM for                 wfc:       0.74 MB

     Dynamical RAM for     wfc (w. buffer):      62.62 MB

     Dynamical RAM for           str. fact:       1.28 MB

     Dynamical RAM for           local pot:       0.00 MB

     Dynamical RAM for          nlocal pot:       2.04 MB

     Dynamical RAM for                qrad:       2.87 MB

     Dynamical RAM for          rho,v,vnew:       4.56 MB

     Dynamical RAM for               rhoin:       1.52 MB

     Dynamical RAM for            rho*nmix:      10.25 MB

     Dynamical RAM for           G-vectors:       2.52 MB

     Dynamical RAM for          h,s,v(r/c):       0.12 MB

     Dynamical RAM for          <psi|beta>:       0.03 MB

     Dynamical RAM for                 psi:       1.47 MB

     Dynamical RAM for                hpsi:       1.47 MB

     Dynamical RAM for                spsi:       1.47 MB

     Dynamical RAM for      wfcinit/wfcrot:       1.60 MB

     Dynamical RAM for           addusdens:     120.42 MB

     Dynamical RAM for          addusforce:     122.03 MB

     Dynamical RAM for         addusstress:     128.74 MB

     Estimated static dynamical RAM per process >      83.72 MB

     Estimated max dynamical RAM per process >     222.72 MB

     Check: negative core charge=   -0.000003

     Initial potential from superposition of free atoms

     starting charge      35.9958, renormalised to      36.0000
     Starting wfcs are   28 randomized atomic wfcs
     Checking if some PAW data can be deallocated... 

     total cpu time spent up to now is        2.3 secs

     per-process dynamical memory:   131.0 Mb

     Self-consistent Calculation

     iteration #  1     ecut=    40.00 Ry     beta= 0.40
     Davidson diagonalization with overlap

---- Real-time Memory Report at c_bands before calling an iterative solver
           185 MiB given to the printing process from OS
           128 MiB allocation reported by mallinfo(arena+hblkhd)
        187223 MiB available memory on the node where the printing process lives
------------------
     ethr =  1.00E-02,  avg # of iterations =  3.4

     total cpu time spent up to now is        6.8 secs

     total energy              =    -688.33206949 Ry
     estimated scf accuracy    <       0.54854333 Ry

     iteration #  2     ecut=    40.00 Ry     beta= 0.40
     Davidson diagonalization with overlap

---- Real-time Memory Report at c_bands before calling an iterative solver
           274 MiB given to the printing process from OS
           143 MiB allocation reported by mallinfo(arena+hblkhd)
        187207 MiB available memory on the node where the printing process lives
------------------
     ethr =  1.52E-03,  avg # of iterations =  2.0

     total cpu time spent up to now is       10.9 secs

     total energy              =    -688.46590549 Ry
     estimated scf accuracy    <       0.04478721 Ry

     iteration #  3     ecut=    40.00 Ry     beta= 0.40
     Davidson diagonalization with overlap

---- Real-time Memory Report at c_bands before calling an iterative solver
           275 MiB given to the printing process from OS
           144 MiB allocation reported by mallinfo(arena+hblkhd)
        187207 MiB available memory on the node where the printing process lives
------------------
     ethr =  1.24E-04,  avg # of iterations =  2.5

     total cpu time spent up to now is       14.9 secs

     total energy              =    -688.47053623 Ry
     estimated scf accuracy    <       0.00700713 Ry

     iteration #  4     ecut=    40.00 Ry     beta= 0.40
     Davidson diagonalization with overlap

---- Real-time Memory Report at c_bands before calling an iterative solver
           276 MiB given to the printing process from OS
           144 MiB allocation reported by mallinfo(arena+hblkhd)
        187207 MiB available memory on the node where the printing process lives
------------------
     ethr =  1.95E-05,  avg # of iterations =  3.9

     total cpu time spent up to now is       19.3 secs

     total energy              =    -688.47117405 Ry
     estimated scf accuracy    <       0.00036775 Ry

     iteration #  5     ecut=    40.00 Ry     beta= 0.40
     Davidson diagonalization with overlap

---- Real-time Memory Report at c_bands before calling an iterative solver
           277 MiB given to the printing process from OS
           145 MiB allocation reported by mallinfo(arena+hblkhd)
        187206 MiB available memory on the node where the printing process lives
------------------
     ethr =  1.02E-06,  avg # of iterations =  4.4

     total cpu time spent up to now is       24.1 secs

     total energy              =    -688.47127484 Ry
     estimated scf accuracy    <       0.00008110 Ry

     iteration #  6     ecut=    40.00 Ry     beta= 0.40
     Davidson diagonalization with overlap

---- Real-time Memory Report at c_bands before calling an iterative solver
           277 MiB given to the printing process from OS
           145 MiB allocation reported by mallinfo(arena+hblkhd)
        187206 MiB available memory on the node where the printing process lives
------------------
     ethr =  2.25E-07,  avg # of iterations =  2.0

     total cpu time spent up to now is       28.1 secs

     total energy              =    -688.47129161 Ry
     estimated scf accuracy    <       0.00000115 Ry

     iteration #  7     ecut=    40.00 Ry     beta= 0.40
     Davidson diagonalization with overlap

---- Real-time Memory Report at c_bands before calling an iterative solver
           278 MiB given to the printing process from OS
           146 MiB allocation reported by mallinfo(arena+hblkhd)
        187205 MiB available memory on the node where the printing process lives
------------------
     ethr =  3.21E-09,  avg # of iterations =  4.7

     total cpu time spent up to now is       33.5 secs

     total energy              =    -688.47129251 Ry
     estimated scf accuracy    <       0.00000060 Ry

     iteration #  8     ecut=    40.00 Ry     beta= 0.40
     Davidson diagonalization with overlap

---- Real-time Memory Report at c_bands before calling an iterative solver
           279 MiB given to the printing process from OS
           146 MiB allocation reported by mallinfo(arena+hblkhd)
        187205 MiB available memory on the node where the printing process lives
------------------
     ethr =  1.66E-09,  avg # of iterations =  2.1

     total cpu time spent up to now is       37.8 secs

     total energy              =    -688.47129268 Ry
     estimated scf accuracy    <       0.00000005 Ry

     iteration #  9     ecut=    40.00 Ry     beta= 0.40
     Davidson diagonalization with overlap

---- Real-time Memory Report at c_bands before calling an iterative solver
           279 MiB given to the printing process from OS
           147 MiB allocation reported by mallinfo(arena+hblkhd)
        187204 MiB available memory on the node where the printing process lives
------------------
     ethr =  1.41E-10,  avg # of iterations =  2.2

     total cpu time spent up to now is       41.8 secs

     total energy              =    -688.47129270 Ry
     estimated scf accuracy    <          8.9E-10 Ry

     iteration # 10     ecut=    40.00 Ry     beta= 0.40
     Davidson diagonalization with overlap

---- Real-time Memory Report at c_bands before calling an iterative solver
           279 MiB given to the printing process from OS
           147 MiB allocation reported by mallinfo(arena+hblkhd)
        187204 MiB available memory on the node where the printing process lives
------------------
     ethr =  2.47E-12,  avg # of iterations =  4.5

     total cpu time spent up to now is       47.1 secs

     End of self-consistent calculation

          k = 0.0000 0.0000 0.0000 (  1857 PWs)   bands (ev):

   -40.0191 -39.9807 -16.3163 -16.1212 -16.1212 -15.9755 -15.9755 -15.9248
     2.1186   4.5563   8.6532  11.8039  12.5839  12.5839  12.6793  13.1254
    13.4670  13.4670  15.6172  16.4021  17.4897  17.9434  17.9434  18.2675
    18.8799  18.8799

     occupation numbers 
     1.0000   1.0000   1.0000   1.0000   1.0000   1.0000   1.0000   1.0000
     1.0000   1.0000   1.0000   1.0000   1.0000   1.0000   1.0000   1.0000
     1.0000   1.0000   0.0000   0.0000   0.0000   0.0000   0.0000   0.0000
     0.0000   0.0000

          k = 0.0000 0.0000 0.1174 (  1862 PWs)   bands (ev):

   -40.0154 -39.9844 -16.2800 -16.1243 -16.1243 -15.9724 -15.9724 -15.9634
     2.2908   4.2030   9.1432  11.6790  12.3698  12.3698  12.4736  12.8939
    13.7893  13.7893  15.6839  16.3173  17.6333  17.6333  17.9333  17.9689
    19.1166  19.1166

     occupation numbers 
     1.0000   1.0000   1.0000   1.0000   1.0000   1.0000   1.0000   1.0000
     1.0000   1.0000   1.0000   1.0000   1.0000   1.0000   1.0000   1.0000
     1.0000   1.0000   0.0000   0.0000   0.0000   0.0000   0.0000   0.0000
     0.0000   0.0000

          k = 0.0000 0.0000 0.2348 (  1862 PWs)   bands (ev):

   -40.0058 -39.9940 -16.1840 -16.1289 -16.1289 -16.0632 -15.9676 -15.9676
     2.7760   3.4778  10.2416  11.2804  12.1475  12.1475  12.1715  12.2751
    14.2190  14.2190  15.8656  16.1067  17.2051  17.2051  18.1723  18.4895
    19.4159  19.4159

     occupation numbers 
     1.0000   1.0000   1.0000   1.0000   1.0000   1.0000   1.0000   1.0000
     1.0000   1.0000   1.0000   1.0000   1.0000   1.0000   1.0000   1.0000
     1.0000   1.0000   0.0000   0.0000   0.0000   0.0000   0.0000   0.0000
     0.0000   0.0000

          k = 0.0000 0.1000 0.0293 (  1861 PWs)   bands (ev):

   -40.0167 -39.9798 -16.3072 -16.1473 -16.1191 -16.0014 -15.9727 -15.9261
     2.2647   4.5772   8.7470  11.5841  12.3620  12.4793  12.7609  13.0269
    13.4140  13.6204  15.4506  16.1489  17.2134  17.7798  18.1979  18.2573
    18.9484  19.3403

     occupation numbers 
     1.0000   1.0000   1.0000   1.0000   1.0000   1.0000   1.0000   1.0000
     1.0000   1.0000   1.0000   1.0000   1.0000   1.0000   1.0000   1.0000
     1.0000   1.0000   0.0000   0.0000   0.0000   0.0000   0.0000   0.0000
     0.0000   0.0000

          k = 0.0000 0.1000 0.1467 (  1860 PWs)   bands (ev):

   -40.0115 -39.9851 -16.2566 -16.1515 -16.1231 -16.0018 -15.9749 -15.9687
     2.5128   4.1065   9.4032  11.4826  11.9936  12.2963  12.4097  12.8803
    13.6160  14.0222  15.6014  16.1762  17.0731  17.8077  18.0194  18.3118
    18.8128  19.6352

     occupation numbers 
     1.0000   1.0000   1.0000   1.0000   1.0000   1.0000   1.0000   1.0000
     1.0000   1.0000   1.0000   1.0000   1.0000   1.0000   1.0000   1.0000
     1.0000   1.0000   0.0000   0.0000   0.0000   0.0000   0.0000   0.0000
     0.0000   0.0000

          k = 0.0000 0.1000 0.2641 (  1865 PWs)   bands (ev):

   -40.0013 -39.9954 -16.1745 -16.1388 -16.1268 -16.0867 -15.9875 -15.9649
     3.0461   3.3891  10.4847  11.0347  11.6643  11.9977  12.1585  12.6686
    13.7807  14.4131  15.6178  16.5205  16.8199  17.2381  18.2815  18.4306
    19.1000  19.8781

     occupation numbers 
     1.0000   1.0000   1.0000   1.0000   1.0000   1.0000   1.0000   1.0000
     1.0000   1.0000   1.0000   1.0000   1.0000   1.0000   1.0000   1.0000
     1.0000   1.0000   0.0000   0.0000   0.0000   0.0000   0.0000   0.0000
     0.0000   0.0000

          k = 0.0000 0.1000-0.2054 (  1865 PWs)   bands (ev):

   -40.0068 -39.9898 -16.2123 -16.1524 -16.1254 -16.0341 -15.9876 -15.9664
     2.7492   3.7527   9.9288  11.3579  11.7751  12.1642  12.2077  12.7468
    13.7201  14.2621  15.6287  16.3243  16.9253  17.4995  18.1795  18.3645
    18.9855  19.7877

     occupation numbers 
     1.0000   1.0000   1.0000   1.0000   1.0000   1.0000   1.0000   1.0000
     1.0000   1.0000   1.0000   1.0000   1.0000   1.0000   1.0000   1.0000
     1.0000   1.0000   0.0000   0.0000   0.0000   0.0000   0.0000   0.0000
     0.0000   0.0000

          k = 0.0000 0.1000-0.0880 (  1858 PWs)   bands (ev):

   -40.0149 -39.9816 -16.2897 -16.1490 -16.1207 -16.0001 -15.9711 -15.9441
     2.3487   4.4024   8.9848  11.5469  12.2122  12.4013  12.6216  12.9987
    13.4985  13.7766  15.5183  16.1400  17.1848  17.8645  18.0815  18.2423
    18.8127  19.4651

     occupation numbers 
     1.0000   1.0000   1.0000   1.0000   1.0000   1.0000   1.0000   1.0000
     1.0000   1.0000   1.0000   1.0000   1.0000   1.0000   1.0000   1.0000
     1.0000   1.0000   0.0000   0.0000   0.0000   0.0000   0.0000   0.0000
     0.0000   0.0000

          k = 0.0000 0.2000 0.0587 (  1856 PWs)   bands (ev):

   -40.0105 -39.9776 -16.2895 -16.2079 -16.1137 -16.0636 -15.9654 -15.9352
     2.6789   4.6259   8.9644  11.0771  11.5800  12.2298  12.9581  13.1331
    13.1739  14.0205  15.2083  15.9030  16.5927  17.4816  18.0190  18.7345
    19.4149  20.2655

     occupation numbers 
     1.0000   1.0000   1.0000   1.0000   1.0000   1.0000   1.0000   1.0000
     1.0000   1.0000   1.0000   1.0000   1.0000   1.0000   1.0000   1.0000
     1.0000   1.0000   0.0000   0.0000   0.0000   0.0000   0.0000   0.0000
     0.0000   0.0000

          k = 0.0000 0.2000 0.1761 (  1866 PWs)   bands (ev):

   -40.0043 -39.9838 -16.2518 -16.1952 -16.1176 -16.0587 -15.9934 -15.9615
     2.9721   4.1381   9.6034  10.8277  11.5444  12.2192  12.3541  13.0862
    13.1072  14.5599  15.0894  16.4136  16.4326  17.5226  18.3525  18.4089
    18.9419  20.4049

     occupation numbers 
     1.0000   1.0000   1.0000   1.0000   1.0000   1.0000   1.0000   1.0000
     1.0000   1.0000   1.0000   1.0000   1.0000   1.0000   1.0000   1.0000
     1.0000   1.0077   0.0000   0.0000   0.0000   0.0000   0.0000   0.0000
     0.0000   0.0000

          k = 0.0000 0.2000 0.2935 (  1882 PWs)   bands (ev):

   -39.9958 -39.9924 -16.2429 -16.1319 -16.1199 -16.0941 -16.0321 -15.9592
     3.4521   3.5537  10.2616  10.5499  11.4339  11.9329  12.2043  13.0609
    13.1332  14.9236  14.9819  16.2158  16.9524  17.6410  17.8902  18.3871
    18.9254  20.5142

     occupation numbers 
     1.0000   1.0000   1.0000   1.0000   1.0000   1.0000   1.0000   1.0000
     1.0000   1.0000   1.0000   1.0000   1.0000   1.0000   1.0000   1.0000
     1.0000   0.0246   0.0021   0.0000   0.0000   0.0000   0.0000   0.0000
     0.0000   0.0000

          k = 0.0000 0.3000 0.0880 (  1862 PWs)   bands (ev):

   -40.0023 -39.9753 -16.3238 -16.2282 -16.1302 -16.1069 -15.9564 -15.9531
     3.2848   4.6668   9.1125  10.1569  11.2501  11.9305  12.8390  13.0715
    13.2569  14.4603  14.9905  15.9890  16.4344  17.2751  17.8628  19.0725
    19.5195  20.9882

     occupation numbers 
     1.0000   1.0000   1.0000   1.0000   1.0000   1.0000   1.0000   1.0000
     1.0000   1.0000   1.0000   1.0000   1.0000   1.0000   1.0000   1.0000
     1.0000   1.0001   0.0014   0.0000   0.0000   0.0000   0.0000   0.0000
     0.0000   0.0000

          k = 0.0000 0.3000 0.2054 (  1863 PWs)   bands (ev):

   -39.9964 -39.9812 -16.3237 -16.1928 -16.1112 -16.1098 -16.0093 -15.9535
     3.5676   4.2763   9.4930   9.8567  11.5745  12.0190  12.3637  12.6956
    13.3551  14.6791  15.1369  16.1959  16.5877  17.2210  18.0312  18.9659
    19.1653  20.5553

     occupation numbers 
     1.0000   1.0000   1.0000   1.0000   1.0000   1.0000   1.0000   1.0000
     1.0000   1.0000   1.0000   1.0000   1.0000   1.0000   1.0000   1.0000
     1.0000   1.0832   0.0000   0.0000   0.0000   0.0000   0.0000   0.0000
     0.0000   0.0000

          k = 0.0000 0.3000 0.3228 (  1865 PWs)   bands (ev):

   -39.9932 -39.9844 -16.3252 -16.1728 -16.1107 -16.1039 -16.0357 -15.9526
     3.7582   4.0547   9.5924   9.8292  11.7247  12.0450  12.0469  12.6601
    13.4223  14.5835  15.4311  16.0035  16.8169  17.2379  18.0233  18.8267
    19.0871  20.4826

     occupation numbers 
     1.0000   1.0000   1.0000   1.0000   1.0000   1.0000   1.0000   1.0000
     1.0000   1.0000   1.0000   1.0000   1.0000   1.0000   1.0000   1.0000
     1.0000   1.0167   0.0000   0.0000   0.0000   0.0000   0.0000   0.0000
     0.0000   0.0000

          k = 0.0000 0.3000-0.1467 (  1862 PWs)   bands (ev):

   -39.9998 -39.9778 -16.3226 -16.2149 -16.1207 -16.1084 -15.9781 -15.9549
     3.4022   4.4942   9.2993   9.9789  11.4247  11.9742  12.7397  12.7619
    13.2777  14.7862  14.8345  16.2689  16.3553  17.2227  17.9757  19.1658
    19.2334  20.7453

     occupation numbers 
     1.0000   1.0000   1.0000   1.0000   1.0000   1.0000   1.0000   1.0000
     1.0000   1.0000   1.0000   1.0000   1.0000   1.0000   1.0000   1.0000
     1.0000   0.6380   0.2983   0.0000   0.0000   0.0000   0.0000   0.0000
     0.0000   0.0000

          k = 0.0000 0.3000-0.0293 (  1860 PWs)   bands (ev):

   -40.0037 -39.9739 -16.3261 -16.2327 -16.1365 -16.1060 -15.9574 -15.9395
     3.2242   4.7633   9.0021  10.3153  11.0938  11.9042  12.8926  13.2014
    13.3592  14.2374  15.0852  15.8308  16.4586  17.3276  17.7805  18.9873
    19.6823  21.1517

     occupation numbers 
     1.0000   1.0000   1.0000   1.0000   1.0000   1.0000   1.0000   1.0000
     1.0000   1.0000   1.0000   1.0000   1.0000   1.0000   1.0000   1.0000
     1.0000   1.0000   0.0000   0.0000   0.0000   0.0000   0.0000   0.0000
     0.0000   0.0000

          k = 0.0000 0.4000 0.1174 (  1860 PWs)   bands (ev):

   -39.9952 -39.9739 -16.3858 -16.2352 -16.1507 -16.1014 -15.9742 -15.9491
     3.9346   4.6477   8.9152   9.4695  11.3272  11.6859  12.5902  12.9943
    13.3577  14.6510  14.8921  16.1020  16.9216  17.4192  17.7618  18.9911
    19.4160  21.1135

     occupation numbers 
     1.0000   1.0000   1.0000   1.0000   1.0000   1.0000   1.0000   1.0000
     1.0000   1.0000   1.0000   1.0000   1.0000   1.0000   1.0000   1.0000
     1.0000   1.0707   0.0703   0.0000   0.0000   0.0000   0.0000   0.0000
     0.0000   0.0000

          k = 0.0000 0.4000 0.2348 (  1862 PWs)   bands (ev):

   -39.9917 -39.9774 -16.3888 -16.2228 -16.1282 -16.1028 -16.0068 -15.9477
     4.1295   4.4338   8.8353   9.5057  11.6657  11.7313  12.4664  12.5480
    13.4105  14.5987  15.1148  16.5241  16.8477  17.4528  17.6923  18.6358
    19.8235  20.4160

     occupation numbers 
     1.0000   1.0000   1.0000   1.0000   1.0000   1.0000   1.0000   1.0000
     1.0000   1.0000   1.0000   1.0000   1.0000   1.0000   1.0000   1.0000
     1.0000   1.0257   0.0000   0.0000   0.0000   0.0000   0.0000   0.0000
     0.0000   0.0000

          k = 0.0000 0.4000 0.0000 (  1862 PWs)   bands (ev):

   -39.9968 -39.9722 -16.3866 -16.2298 -16.1724 -16.1005 -15.9566 -15.9501
     3.8590   4.7359   8.8395   9.6719  11.0688  11.6508  12.6470  13.1435
    13.4528  14.4066  14.9775  16.0095  16.9293  17.4623  17.7985  19.0532
    19.2804  21.6480

     occupation numbers 
     1.0000   1.0000   1.0000   1.0000   1.0000   1.0000   1.0000   1.0000
     1.0000   1.0000   1.0000   1.0000   1.0000   1.0000   1.0000   1.0000
     1.0000   1.0000   0.0026   0.0000   0.0000   0.0000   0.0000   0.0000
     0.0000   0.0000

          k = 0.0000-0.5000-0.1467 (  1870 PWs)   bands (ev):

   -39.9922 -39.9736 -16.4108 -16.2492 -16.1430 -16.0993 -15.9850 -15.9464
     4.3341   4.5343   8.6329   9.3485  11.4199  11.5924  12.5013  12.9700
    13.3175  14.7296  14.8777  16.1249  17.2752  17.4291  18.0602  18.4819
    19.6643  20.9626

     occupation numbers 
     1.0000   1.0000   1.0000   1.0000   1.0000   1.0000   1.0000   1.0000
     1.0000   1.0000   1.0000   1.0000   1.0000   1.0000   1.0000   1.0000
     1.0000   0.9878   0.1069   0.0000   0.0000   0.0000   0.0000   0.0000
     0.0000   0.0000

          k = 0.0000-0.5000-0.0293 (  1862 PWs)   bands (ev):

   -39.9922 -39.9736 -16.4124 -16.2413 -16.1511 -16.0993 -15.9829 -15.9464
     4.3318   4.5377   8.5638   9.4656  11.3805  11.5846  12.5265  12.8745
    13.3354  14.7667  14.7962  16.2992  17.2769  17.4885  18.0659  18.5401
    19.3613  21.2582

     occupation numbers 
     1.0000   1.0000   1.0000   1.0000   1.0000   1.0000   1.0000   1.0000
     1.0000   1.0000   1.0000   1.0000   1.0000   1.0000   1.0000   1.0000
     1.0000   0.7799   0.5625   0.0000   0.0000   0.0000   0.0000   0.0000
     0.0000   0.0000

          k = 0.0000-0.5000 0.0880 (  1862 PWs)   bands (ev):

   -39.9922 -39.9736 -16.4114 -16.2463 -16.1459 -16.0992 -15.9842 -15.9464
     4.3332   4.5356   8.6045   9.3948  11.4055  11.5894  12.5109  12.9316
    13.3254  14.7561  14.8329  16.1930  17.2756  17.4512  18.0626  18.5035
    19.5383  21.0863

     occupation numbers 
     1.0000   1.0000   1.0000   1.0000   1.0000   1.0000   1.0000   1.0000
     1.0000   1.0000   1.0000   1.0000   1.0000   1.0000   1.0000   1.0000
     1.0000   0.8499   0.3081   0.0000   0.0000   0.0000   0.0000   0.0000
     0.0000   0.0000

          k = 0.1000 0.1000 0.0587 (  1864 PWs)   bands (ev):

   -40.0140 -39.9794 -16.2944 -16.1493 -16.1416 -16.0018 -15.9944 -15.9313
     2.4259   4.5534   8.9149  11.3910  12.2948  12.3559  12.3670  12.9404
    13.6179  13.7868  15.3302  15.8195  17.4386  17.5760  18.3003  18.5621
    18.8633  19.4068

     occupation numbers 
     1.0000   1.0000   1.0000   1.0000   1.0000   1.0000   1.0000   1.0000
     1.0000   1.0000   1.0000   1.0000   1.0000   1.0000   1.0000   1.0000
     1.0000   1.0000   0.0000   0.0000   0.0000   0.0000   0.0000   0.0000
     0.0000   0.0000

          k = 0.1000 0.1000 0.1761 (  1852 PWs)   bands (ev):

   -40.0074 -39.9860 -16.2327 -16.1558 -16.1436 -16.0152 -15.9888 -15.9792
     2.7417   4.0052   9.6915  11.3518  11.8370  11.9110  12.3677  12.7143
    13.7380  13.9635  15.8270  15.9318  17.2228  17.3763  18.2693  18.4651
    19.3012  19.3059

     occupation numbers 
     1.0000   1.0000   1.0000   1.0000   1.0000   1.0000   1.0000   1.0000
     1.0000   1.0000   1.0000   1.0000   1.0000   1.0000   1.0000   1.0000
     1.0000   1.0000   0.0000   0.0000   0.0000   0.0000   0.0000   0.0000
     0.0000   0.0000

          k = 0.1000 0.1000 0.2935 (  1864 PWs)   bands (ev):

   -39.9967 -39.9967 -16.1675 -16.1675 -16.1061 -16.1061 -15.9851 -15.9851
     3.3125   3.3125  10.7682  10.7682  11.5812  11.5812  12.4780  12.4780
    13.8962  13.8962  16.2933  16.2933  16.8739  16.8739  18.4461  18.4461
    19.4958  19.4958

     occupation numbers 
     1.0000   1.0000   1.0000   1.0000   1.0000   1.0000   1.0000   1.0000
     1.0000   1.0000   1.0000   1.0000   1.0000   1.0000   1.0000   1.0000
     1.0000   1.0000   0.0000   0.0000   0.0000   0.0000   0.0000   0.0000
     0.0000   0.0000

          k = 0.1000 0.2000 0.0880 (  1862 PWs)   bands (ev):

   -40.0074 -39.9775 -16.2757 -16.2060 -16.1390 -16.0595 -15.9903 -15.9424
     2.8393   4.5738   9.1965  10.9385  11.4665  12.0273  12.4214  12.9405
    13.6273  14.1814  15.1481  15.6409  16.9202  17.8570  18.1079  18.6663
    19.4018  20.0044

     occupation numbers 
     1.0000   1.0000   1.0000   1.0000   1.0000   1.0000   1.0000   1.0000
     1.0000   1.0000   1.0000   1.0000   1.0000   1.0000   1.0000   1.0000
     1.0000   1.0000   0.0000   0.0000   0.0000   0.0000   0.0000   0.0000
     0.0000   0.0000

          k = 0.1000 0.2000 0.2054 (  1866 PWs)   bands (ev):

   -40.0002 -39.9848 -16.2427 -16.1839 -16.1392 -16.0593 -16.0111 -15.9791
     3.1863   4.0448   9.9038  10.8038  11.3447  11.8844  12.1418  12.6544
    13.5158  14.2155  15.5686  16.3401  16.7071  17.7019  18.0834  18.6303
    19.1774  20.0902

     occupation numbers 
     1.0000   1.0000   1.0000   1.0000   1.0000   1.0000   1.0000   1.0000
     1.0000   1.0000   1.0000   1.0000   1.0000   1.0000   1.0000   1.0000
     1.0000   1.0000   0.0000   0.0000   0.0000   0.0000   0.0000   0.0000
     0.0000   0.0000

          k = 0.1000 0.2000 0.3228 (  1869 PWs)   bands (ev):

   -39.9954 -39.9896 -16.2394 -16.1639 -16.1235 -16.0819 -16.0280 -15.9794
     3.4397   3.7409  10.2826  10.6880  11.2219  11.6982  12.1923  12.6012
    13.4790  14.1695  15.8948  16.4142  16.7258  17.4656  18.0931  18.6012
    19.1753  20.1553

     occupation numbers 
     1.0000   1.0000   1.0000   1.0000   1.0000   1.0000   1.0000   1.0000
     1.0000   1.0000   1.0000   1.0000   1.0000   1.0000   1.0000   1.0000
     1.0000   1.0000   0.0000   0.0000   0.0000   0.0000   0.0000   0.0000
     0.0000   0.0000

          k = 0.1000 0.2000-0.1467 (  1864 PWs)   bands (ev):

   -40.0044 -39.9806 -16.2560 -16.2021 -16.1405 -16.0567 -15.9915 -15.9673
     2.9818   4.3364   9.5117  10.8747  11.4420  12.0184  12.2347  12.7556
    13.5730  14.2496  15.2851  15.9537  16.8734  17.8564  18.0949  18.6240
    19.2798  19.9971

     occupation numbers 
     1.0000   1.0000   1.0000   1.0000   1.0000   1.0000   1.0000   1.0000
     1.0000   1.0000   1.0000   1.0000   1.0000   1.0000   1.0000   1.0000
     1.0000   1.0000   0.0000   0.0000   0.0000   0.0000   0.0000   0.0000
     0.0000   0.0000

          k = 0.1000 0.2000-0.0293 (  1860 PWs)   bands (ev):

   -40.0090 -39.9759 -16.2884 -16.2055 -16.1378 -16.0618 -15.9912 -15.9273
     2.7663   4.7103   9.0189  10.9858  11.4476  12.0478  12.5076  13.1244
    13.6712  14.0417  15.1261  15.4747  16.9100  17.7719  18.1495  18.7142
    19.4536  20.1039

     occupation numbers 
     1.0000   1.0000   1.0000   1.0000   1.0000   1.0000   1.0000   1.0000
     1.0000   1.0000   1.0000   1.0000   1.0000   1.0000   1.0000   1.0000
     1.0000   1.0000   0.0000   0.0000   0.0000   0.0000   0.0000   0.0000
     0.0000   0.0000

          k = 0.1000 0.3000 0.1174 (  1865 PWs)   bands (ev):

   -39.9992 -39.9753 -16.3186 -16.2195 -16.1327 -16.1215 -15.9842 -15.9576
     3.4231   4.6151   9.3196  10.0904  11.2091  11.6200  12.5071  12.9056
    13.5028  14.3768  15.2288  15.8831  16.7663  17.6538  18.0079  18.8183
    19.5770  20.5946

     occupation numbers 
     1.0000   1.0000   1.0000   1.0000   1.0000   1.0000   1.0000   1.0000
     1.0000   1.0000   1.0000   1.0000   1.0000   1.0000   1.0000   1.0000
     1.0000   1.0000   0.0000   0.0000   0.0000   0.0000   0.0000   0.0000
     0.0000   0.0000

          k = 0.1000 0.3000 0.2348 (  1860 PWs)   bands (ev):

   -39.9927 -39.9817 -16.3204 -16.1826 -16.1326 -16.1037 -16.0240 -15.9722
     3.7378   4.2070   9.6679   9.8966  11.4891  11.6774  12.1107  12.5416
    13.5089  14.3078  15.7282  16.3662  16.6392  17.5391  18.2145  18.5941
    19.4411  20.1780

     occupation numbers 
     1.0000   1.0000   1.0000   1.0000   1.0000   1.0000   1.0000   1.0000
     1.0000   1.0000   1.0000   1.0000   1.0000   1.0000   1.0000   1.0000
     1.0000   1.0000   0.0000   0.0000   0.0000   0.0000   0.0000   0.0000
     0.0000   0.0000

          k = 0.1000 0.3000 0.0000 (  1862 PWs)   bands (ev):

   -40.0018 -39.9726 -16.3216 -16.2294 -16.1355 -16.1283 -15.9831 -15.9351
     3.3076   4.7928   9.1109  10.4040  10.8384  11.6433  12.5675  13.3550
    13.5300  14.2041  15.1640  15.5992  16.7467  17.6613  17.8835  18.8391
    19.7204  20.9213

     occupation numbers 
     1.0000   1.0000   1.0000   1.0000   1.0000   1.0000   1.0000   1.0000
     1.0000   1.0000   1.0000   1.0000   1.0000   1.0000   1.0000   1.0000
     1.0000   1.0000   0.0000   0.0000   0.0000   0.0000   0.0000   0.0000
     0.0000   0.0000

          k = 0.1000 0.4000 0.1467 (  1861 PWs)   bands (ev):

   -39.9923 -39.9736 -16.3817 -16.2300 -16.1437 -16.1224 -15.9888 -15.9634
     4.0259   4.6226   9.0206   9.4822  11.1680  11.6190  12.4664  12.7707
    13.4668  14.2934  15.5013  16.1052  17.0923  17.7649  17.8712  18.7245
    19.4748  20.7152

     occupation numbers 
     1.0000   1.0000   1.0000   1.0000   1.0000   1.0000   1.0000   1.0000
     1.0000   1.0000   1.0000   1.0000   1.0000   1.0000   1.0000   1.0000
     1.0000   1.0000   0.0000   0.0000   0.0000   0.0000   0.0000   0.0000
     0.0000   0.0000

          k = 0.1000 0.4000 0.2641 (  1855 PWs)   bands (ev):

   -39.9891 -39.9768 -16.3848 -16.2171 -16.1345 -16.1151 -16.0127 -15.9662
     4.2281   4.4034   8.9093   9.6181  11.2260  11.8751  12.2353  12.4603
    13.5346  14.2429  15.7429  16.4524  16.9886  17.6806  18.0027  18.5302
    19.5917  20.2501

     occupation numbers 
     1.0000   1.0000   1.0000   1.0000   1.0000   1.0000   1.0000   1.0000
     1.0000   1.0000   1.0000   1.0000   1.0000   1.0000   1.0000   1.0000
     1.0000   1.0000   0.0000   0.0000   0.0000   0.0000   0.0000   0.0000
     0.0000   0.0000

          k = 0.1000 0.4000 0.3815 (  1859 PWs)   bands (ev):

   -39.9905 -39.9754 -16.3833 -16.2236 -16.1364 -16.1188 -16.0024 -15.9657
     4.1223   4.5155   8.9715   9.5292  11.2161  11.7586  12.3899  12.5464
    13.4858  14.2809  15.6385  16.2884  17.0480  17.7112  17.9477  18.6121
    19.6087  20.3546

     occupation numbers 
     1.0000   1.0000   1.0000   1.0000   1.0000   1.0000   1.0000   1.0000
     1.0000   1.0000   1.0000   1.0000   1.0000   1.0000   1.0000   1.0000
     1.0000   1.0000   0.0000   0.0000   0.0000   0.0000   0.0000   0.0000
     0.0000   0.0000

          k = 0.1000 0.4000-0.0880 (  1861 PWs)   bands (ev):

   -39.9939 -39.9721 -16.3814 -16.2306 -16.1563 -16.1234 -15.9807 -15.9573
     3.9559   4.7037   8.9701   9.5993  11.0446  11.5163  12.4902  12.9807
    13.5150  14.2639  15.3655  16.0299  17.0987  17.7288  17.8666  18.8400
    19.3126  21.1486

     occupation numbers 
     1.0000   1.0000   1.0000   1.0000   1.0000   1.0000   1.0000   1.0000
     1.0000   1.0000   1.0000   1.0000   1.0000   1.0000   1.0000   1.0000
     1.0000   1.0000   0.0000   0.0000   0.0000   0.0000   0.0000   0.0000
     0.0000   0.0000

          k = 0.1000 0.4000 0.0293 (  1863 PWs)   bands (ev):

   -39.9947 -39.9712 -16.3819 -16.2271 -16.1672 -16.1235 -15.9784 -15.9513
     3.9193   4.7474   8.9099   9.7509  10.9019  11.4746  12.4986  13.0854
    13.5822  14.2276  15.2743  16.0433  17.0919  17.6233  17.9276  18.8667
    19.2751  21.4050

     occupation numbers 
     1.0000   1.0000   1.0000   1.0000   1.0000   1.0000   1.0000   1.0000
     1.0000   1.0000   1.0000   1.0000   1.0000   1.0000   1.0000   1.0000
     1.0000   1.0000   0.0000   0.0000   0.0000   0.0000   0.0000   0.0000
     0.0000   0.0000

          k = 0.1000-0.5000-0.1174 (  1864 PWs)   bands (ev):

   -39.9902 -39.9725 -16.4064 -16.2442 -16.1441 -16.1195 -15.9900 -15.9620
     4.3549   4.5648   8.7290   9.4022  11.0375  11.7498  12.4400  12.7165
    13.4790  14.2720  15.5117  16.1426  17.4600  17.7194  18.0591  18.5009
    19.4137  20.8593

     occupation numbers 
     1.0000   1.0000   1.0000   1.0000   1.0000   1.0000   1.0000   1.0000
     1.0000   1.0000   1.0000   1.0000   1.0000   1.0000   1.0000   1.0000
     1.0000   1.0000   0.0000   0.0000   0.0000   0.0000   0.0000   0.0000
     0.0000   0.0000

          k = 0.1000-0.5000 0.0000 (  1858 PWs)   bands (ev):

   -39.9902 -39.9725 -16.4079 -16.2370 -16.1506 -16.1205 -15.9884 -15.9617
     4.3530   4.5677   8.6422   9.5647  10.9877  11.6800  12.4371  12.7004
    13.5304  14.2408  15.4989  16.2981  17.4557  17.6930  18.0704  18.5806
    19.1348  21.0143

     occupation numbers 
     1.0000   1.0000   1.0000   1.0000   1.0000   1.0000   1.0000   1.0000
     1.0000   1.0000   1.0000   1.0000   1.0000   1.0000   1.0000   1.0000
     1.0000   1.0000   0.0000   0.0000   0.0000   0.0000   0.0000   0.0000
     0.0000   0.0000

          k = 0.1000-0.5000-0.3522 (  1864 PWs)   bands (ev):

   -39.9902 -39.9725 -16.4073 -16.2399 -16.1480 -16.1202 -15.9890 -15.9618
     4.3537   4.5666   8.6721   9.5046  11.0086  11.7062  12.4371  12.7080
    13.5079  14.2567  15.5000  16.2383  17.4574  17.7107  18.0607  18.5464
    19.2371  20.9710

     occupation numbers 
     1.0000   1.0000   1.0000   1.0000   1.0000   1.0000   1.0000   1.0000
     1.0000   1.0000   1.0000   1.0000   1.0000   1.0000   1.0000   1.0000
     1.0000   1.0000   0.0000   0.0000   0.0000   0.0000   0.0000   0.0000
     0.0000   0.0000

          k = 0.1000-0.3000-0.0587 (  1861 PWs)   bands (ev):

   -40.0011 -39.9733 -16.3204 -16.2276 -16.1337 -16.1274 -15.9830 -15.9413
     3.3369   4.7459   9.1668  10.2812  10.9766  11.6367  12.5529  13.2107
    13.5233  14.2784  15.1733  15.6653  16.7597  17.6984  17.8770  18.8547
    19.6667  20.8267

     occupation numbers 
     1.0000   1.0000   1.0000   1.0000   1.0000   1.0000   1.0000   1.0000
     1.0000   1.0000   1.0000   1.0000   1.0000   1.0000   1.0000   1.0000
     1.0000   1.0000   0.0000   0.0000   0.0000   0.0000   0.0000   0.0000
     0.0000   0.0000

          k = 0.1000-0.3000 0.1761 (  1862 PWs)   bands (ev):

   -39.9962 -39.9782 -16.3188 -16.2025 -16.1332 -16.1124 -15.9975 -15.9704
     3.5605   4.4251   9.5211   9.9432  11.4068  11.6154  12.3636  12.6446
    13.4930  14.3708  15.4238  16.1945  16.6997  17.5715  18.2019  18.6568
    19.5268  20.3376

     occupation numbers 
     1.0000   1.0000   1.0000   1.0000   1.0000   1.0000   1.0000   1.0000
     1.0000   1.0000   1.0000   1.0000   1.0000   1.0000   1.0000   1.0000
     1.0000   1.0000   0.0000   0.0000   0.0000   0.0000   0.0000   0.0000
     0.0000   0.0000

          k = 0.1000-0.3000-0.2935 (  1857 PWs)   bands (ev):

   -39.9905 -39.9839 -16.3212 -16.1733 -16.1314 -16.0987 -16.0388 -15.9721
     3.8898   4.0399   9.6914   9.9261  11.5002  11.7283  11.9864  12.5095
    13.5220  14.2761  15.9695  16.2121  16.7305  17.5352  18.1383  18.6327
    19.3791  20.1350

     occupation numbers 
     1.0000   1.0000   1.0000   1.0000   1.0000   1.0000   1.0000   1.0000
     1.0000   1.0000   1.0000   1.0000   1.0000   1.0000   1.0000   1.0000
     1.0000   1.0000   0.0000   0.0000   0.0000   0.0000   0.0000   0.0000
     0.0000   0.0000

          k = 0.1000-0.1000 0.0000 (  1857 PWs)   bands (ev):

   -40.0149 -39.9785 -16.3028 -16.1482 -16.1409 -16.0023 -15.9953 -15.9226
     2.3850   4.6399   8.7988  11.4004  12.3190  12.4075  12.4399  12.9820
    13.5901  13.7319  15.2607  15.8221  17.4636  17.5294  18.3799  18.5771
    18.7885  19.4982

     occupation numbers 
     1.0000   1.0000   1.0000   1.0000   1.0000   1.0000   1.0000   1.0000
     1.0000   1.0000   1.0000   1.0000   1.0000   1.0000   1.0000   1.0000
     1.0000   1.0000   0.0000   0.0000   0.0000   0.0000   0.0000   0.0000
     0.0000   0.0000

          k = 0.1000-0.1000 0.1174 (  1860 PWs)   bands (ev):

   -40.0114 -39.9820 -16.2699 -16.1521 -16.1432 -16.0020 -15.9919 -15.9549
     2.5467   4.3223   9.2337  11.3714  12.1255  12.1562  12.3482  12.8423
    13.6744  13.8929  15.5314  15.8378  17.3610  17.5932  18.2016  18.5143
    19.0510  19.2978

     occupation numbers 
     1.0000   1.0000   1.0000   1.0000   1.0000   1.0000   1.0000   1.0000
     1.0000   1.0000   1.0000   1.0000   1.0000   1.0000   1.0000   1.0000
     1.0000   1.0000   0.0000   0.0000   0.0000   0.0000   0.0000   0.0000
     0.0000   0.0000

          k = 0.1000-0.1000 0.2348 (  1855 PWs)   bands (ev):

   -40.0023 -39.9911 -16.1914 -16.1602 -16.1370 -16.0572 -15.9864 -15.9845
     3.0015   3.6559  10.2236  11.2226  11.5589  11.7186  12.4078  12.5836
    13.8135  13.9591  16.1228  16.1416  17.0248  17.0522  18.3833  18.4549
    19.3962  19.4880

     occupation numbers 
     1.0000   1.0000   1.0000   1.0000   1.0000   1.0000   1.0000   1.0000
     1.0000   1.0000   1.0000   1.0000   1.0000   1.0000   1.0000   1.0000
     1.0000   1.0000   0.0000   0.0000   0.0000   0.0000   0.0000   0.0000
     0.0000   0.0000

          k = 0.2000 0.2000 0.1174 (  1851 PWs)   bands (ev):

   -40.0007 -39.9758 -16.2580 -16.2189 -16.1774 -16.0601 -16.0393 -15.9546
     3.2135   4.5707   9.5881  10.5362  11.1904  11.6845  11.8525  12.7883
    13.9944  14.0335  15.3721  15.6346  17.0703  18.0276  18.3886  18.9995
    19.3777  20.0280

     occupation numbers 
     1.0000   1.0000   1.0000   1.0000   1.0000   1.0000   1.0000   1.0000
     1.0000   1.0000   1.0000   1.0000   1.0000   1.0000   1.0000   1.0000
     1.0000   1.0000   0.0000   0.0000   0.0000   0.0000   0.0000   0.0000
     0.0000   0.0000

          k = 0.2000 0.2000 0.2348 (  1857 PWs)   bands (ev):

   -39.9930 -39.9835 -16.2342 -16.2266 -16.1373 -16.0731 -16.0297 -16.0093
     3.5737   4.0806  10.2616  10.7031  11.0060  11.0828  12.0128  12.4021
    13.8039  13.8382  16.2080  16.3147  17.0634  17.3099  18.5220  18.8148
    19.7190  19.7458

     occupation numbers 
     1.0000   1.0000   1.0000   1.0000   1.0000   1.0000   1.0000   1.0000
     1.0000   1.0000   1.0000   1.0000   1.0000   1.0000   1.0000   1.0000
     1.0000   1.0000   0.0000   0.0000   0.0000   0.0000   0.0000   0.0000
     0.0000   0.0000

          k = 0.2000 0.2000 0.0000 (  1855 PWs)   bands (ev):

   -40.0036 -39.9729 -16.2769 -16.2146 -16.1814 -16.0625 -16.0442 -15.9277
     3.0845   4.7885   9.3096  10.4857  11.1629  11.8401  11.9567  13.1222
    14.0084  14.1508  14.9712  15.4066  16.9025  17.9123  18.8589  18.9946
    19.0803  20.3492

     occupation numbers 
     1.0000   1.0000   1.0000   1.0000   1.0000   1.0000   1.0000   1.0000
     1.0000   1.0000   1.0000   1.0000   1.0000   1.0000   1.0000   1.0000
     1.0000   1.0000   0.0035   0.0000   0.0000   0.0000   0.0000   0.0000
     0.0000   0.0000

          k = 0.2000 0.3000 0.1467 (  1856 PWs)   bands (ev):

   -39.9925 -39.9736 -16.3075 -16.2259 -16.1713 -16.1112 -16.0375 -15.9709
     3.7140   4.6034   9.6819   9.9811  10.9418  11.2686  11.9289  12.6350
    13.7605  14.1716  15.6710  16.0908  17.1291  18.1009  18.3662  18.8823
    19.6822  20.2662

     occupation numbers 
     1.0000   1.0000   1.0000   1.0000   1.0000   1.0000   1.0000   1.0000
     1.0000   1.0000   1.0000   1.0000   1.0000   1.0000   1.0000   1.0000
     1.0000   1.0000   0.0000   0.0000   0.0000   0.0000   0.0000   0.0000
     0.0000   0.0000

          k = 0.2000 0.3000 0.2641 (  1860 PWs)   bands (ev):

   -39.9860 -39.9802 -16.3100 -16.2204 -16.1447 -16.0983 -16.0404 -16.0116
     4.0237   4.2312   9.8549  10.1734  10.7913  11.1767  11.9996  12.3244
    13.6847  14.0106  16.3204  16.5548  17.0191  17.6749  18.4035  19.0526
    19.6000  19.8975

     occupation numbers 
     1.0000   1.0000   1.0000   1.0000   1.0000   1.0000   1.0000   1.0000
     1.0000   1.0000   1.0000   1.0000   1.0000   1.0000   1.0000   1.0000
     1.0000   1.0000   0.0000   0.0000   0.0000   0.0000   0.0000   0.0000
     0.0000   0.0000

          k = 0.2000 0.3000 0.3815 (  1857 PWs)   bands (ev):

   -39.9893 -39.9768 -16.3087 -16.2220 -16.1583 -16.1038 -16.0369 -15.9952
     3.8541   4.4244   9.8510   9.9852  10.9198  11.2301  11.9041  12.4735
    13.6945  14.0861  16.0341  16.3131  17.1641  17.8476  18.4586  18.8635
    19.7239  20.0015

     occupation numbers 
     1.0000   1.0000   1.0000   1.0000   1.0000   1.0000   1.0000   1.0000
     1.0000   1.0000   1.0000   1.0000   1.0000   1.0000   1.0000   1.0000
     1.0000   1.0000   0.0000   0.0000   0.0000   0.0000   0.0000   0.0000
     0.0000   0.0000

          k = 0.2000 0.3000-0.0880 (  1859 PWs)   bands (ev):

   -39.9948 -39.9713 -16.3079 -16.2303 -16.1773 -16.1187 -16.0396 -15.9502
     3.6154   4.7420   9.5073  10.0691  10.8223  11.3084  12.0154  12.8044
    13.8590  14.2441  15.3160  15.9873  16.9728  18.0763  18.4385  19.0298
    19.5663  20.5640

     occupation numbers 
     1.0000   1.0000   1.0000   1.0000   1.0000   1.0000   1.0000   1.0000
     1.0000   1.0000   1.0000   1.0000   1.0000   1.0000   1.0000   1.0000
     1.0000   1.0000   0.0000   0.0000   0.0000   0.0000   0.0000   0.0000
     0.0000   0.0000

          k = 0.2000 0.3000 0.0293 (  1855 PWs)   bands (ev):

   -39.9961 -39.9700 -16.3090 -16.2324 -16.1787 -16.1235 -16.0411 -15.9387
     3.5647   4.8181   9.4119  10.1603  10.6867  11.3432  12.0629  12.9324
    13.9198  14.3182  15.0612  15.9768  16.8390  17.9495  18.5729  19.1205
    19.4997  20.7628

     occupation numbers 
     1.0000   1.0000   1.0000   1.0000   1.0000   1.0000   1.0000   1.0000
     1.0000   1.0000   1.0000   1.0000   1.0000   1.0000   1.0000   1.0000
     1.0000   1.0000   0.0000   0.0000   0.0000   0.0000   0.0000   0.0000
     0.0000   0.0000

          k = 0.2000 0.4000 0.1761 (  1859 PWs)   bands (ev):

   -39.9861 -39.9716 -16.3707 -16.2267 -16.1854 -16.1192 -16.0323 -15.9820
     4.1975   4.6248   9.2556   9.5557  10.8241  11.4160  12.0657  12.4945
    13.6930  14.1141  15.8985  16.6091  17.4081  18.0133  18.4411  18.5868
    19.5042  20.3925

     occupation numbers 
     1.0000   1.0000   1.0000   1.0000   1.0000   1.0000   1.0000   1.0000
     1.0000   1.0000   1.0000   1.0000   1.0000   1.0000   1.0000   1.0000
     1.0000   1.0000   0.0000   0.0000   0.0000   0.0000   0.0000   0.0000
     0.0000   0.0000

          k = 0.2000 0.4000 0.2935 (  1846 PWs)   bands (ev):

   -39.9835 -39.9742 -16.3728 -16.2222 -16.1819 -16.1073 -16.0343 -15.9977
     4.3791   4.4299   9.1290   9.8616  10.6229  11.4653  12.0673  12.4045
    13.7071  14.0320  16.2420  16.7709  17.2896  17.8190  18.3210  18.9736
    19.2917  20.1598

     occupation numbers 
     1.0000   1.0000   1.0000   1.0000   1.0000   1.0000   1.0000   1.0000
     1.0000   1.0000   1.0000   1.0000   1.0000   1.0000   1.0000   1.0000
     1.0000   1.0000   0.0000   0.0000   0.0000   0.0000   0.0000   0.0000
     0.0000   0.0000

          k = 0.2000 0.4000-0.0587 (  1863 PWs)   bands (ev):

   -39.9889 -39.9688 -16.3698 -16.2269 -16.1873 -16.1413 -16.0330 -15.9577
     4.0773   4.7670   9.0944   9.7735  10.8179  11.1190  12.2218  12.6149
    13.8593  14.1851  15.4827  16.6016  17.2203  17.7856  18.4833  18.9216
    19.3515  21.1288

     occupation numbers 
     1.0000   1.0000   1.0000   1.0000   1.0000   1.0000   1.0000   1.0000
     1.0000   1.0000   1.0000   1.0000   1.0000   1.0000   1.0000   1.0000
     1.0000   1.0000   0.0000   0.0000   0.0000   0.0000   0.0000   0.0000
     0.0000   0.0000

          k = 0.2000-0.5000-0.0880 (  1858 PWs)   bands (ev):

   -39.9848 -39.9697 -16.3947 -16.2359 -16.1905 -16.1231 -16.0302 -15.9765
     4.4078   4.6328   8.9485   9.5274  10.7072  11.4807  12.2620  12.3694
    13.8301  14.0191  15.8138  16.9186  17.5589  17.8207  18.4929  18.5852
    19.2659  20.7855

     occupation numbers 
     1.0000   1.0000   1.0000   1.0000   1.0000   1.0000   1.0000   1.0000
     1.0000   1.0000   1.0000   1.0000   1.0000   1.0000   1.0000   1.0000
     1.0000   1.0000   0.0000   0.0000   0.0000   0.0000   0.0000   0.0000
     0.0000   0.0000

          k = 0.2000-0.5000 0.0293 (  1862 PWs)   bands (ev):

   -39.9848 -39.9697 -16.3953 -16.2331 -16.1905 -16.1262 -16.0301 -15.9757
     4.4073   4.6337   8.8680   9.7063  10.6127  11.4135  12.3044  12.3677
    13.8557  14.0190  15.8710  16.9336  17.5565  17.6197  18.5964  18.7076
    19.1050  20.7964

     occupation numbers 
     1.0000   1.0000   1.0000   1.0000   1.0000   1.0000   1.0000   1.0000
     1.0000   1.0000   1.0000   1.0000   1.0000   1.0000   1.0000   1.0000
     1.0000   1.0000   0.0000   0.0000   0.0000   0.0000   0.0000   0.0000
     0.0000   0.0000

          k = 0.2000-0.5000 0.1467 (  1862 PWs)   bands (ev):

   -39.9848 -39.9697 -16.3942 -16.2375 -16.1905 -16.1213 -16.0303 -15.9771
     4.4081   4.6323   9.0240   9.4020  10.7519  11.5309  12.2292  12.3713
    13.8173  14.0149  15.7839  16.9104  17.5586  17.9834  18.3828  18.5337
    19.3519  20.7706

     occupation numbers 
     1.0000   1.0000   1.0000   1.0000   1.0000   1.0000   1.0000   1.0000
     1.0000   1.0000   1.0000   1.0000   1.0000   1.0000   1.0000   1.0000
     1.0000   1.0000   0.0000   0.0000   0.0000   0.0000   0.0000   0.0000
     0.0000   0.0000

          k = 0.3000 0.3000 0.1761 (  1856 PWs)   bands (ev):

   -39.9844 -39.9714 -16.2951 -16.2946 -16.1633 -16.1240 -16.0693 -15.9877
     4.0727   4.6206   9.7556   9.8226  10.6738  11.0549  11.7117  12.4327
    13.7897  14.1408  16.0944  16.5384  17.3570  18.0139  18.9175  19.0416
    19.9059  20.2814

     occupation numbers 
     1.0000   1.0000   1.0000   1.0000   1.0000   1.0000   1.0000   1.0000
     1.0000   1.0000   1.0000   1.0000   1.0000   1.0000   1.0000   1.0000
     1.0000   1.0000   0.0000   0.0000   0.0000   0.0000   0.0000   0.0000
     0.0000   0.0000

          k = 0.3000 0.3000 0.2935 (  1852 PWs)   bands (ev):

   -39.9779 -39.9779 -16.2965 -16.2965 -16.1348 -16.1348 -16.0359 -16.0359
     4.3324   4.3324   9.9573   9.9573  10.6130  10.6130  12.1509  12.1509
    13.8730  13.8730  16.6537  16.6537  17.5216  17.5216  18.9588  18.9588
    19.9999  19.9999

     occupation numbers 
     1.0000   1.0000   1.0000   1.0000   1.0000   1.0000   1.0000   1.0000
     1.0000   1.0000   1.0000   1.0000   1.0000   1.0000   1.0000   1.0000
     1.0000   1.0000   0.0000   0.0000   0.0000   0.0000   0.0000   0.0000
     0.0000   0.0000

          k = 0.3000 0.3000-0.0587 (  1856 PWs)   bands (ev):

   -39.9884 -39.9674 -16.2968 -16.2905 -16.1791 -16.1272 -16.0880 -15.9516
     3.9244   4.8148   9.6147   9.6590  10.7819  11.3931  11.5111  12.5135
    14.0060  14.2616  15.5119  16.5593  16.8520  18.3582  18.7321  19.4757
    19.6925  20.7073

     occupation numbers 
     1.0000   1.0000   1.0000   1.0000   1.0000   1.0000   1.0000   1.0000
     1.0000   1.0000   1.0000   1.0000   1.0000   1.0000   1.0000   1.0000
     1.0000   1.0000   0.0000   0.0000   0.0000   0.0000   0.0000   0.0000
     0.0000   0.0000

          k = 0.3000 0.4000 0.2054 (  1846 PWs)   bands (ev):

   -39.9782 -39.9693 -16.3568 -16.2849 -16.1883 -16.1311 -16.0609 -15.9986
     4.3858   4.6366   9.4247   9.6977  10.5163  10.9795  11.9396  12.2904
    13.8330  14.1698  16.4056  17.0413  17.6676  17.8957  18.7310  19.0123
    19.9905  20.3550

     occupation numbers 
     1.0000   1.0000   1.0000   1.0000   1.0000   1.0000   1.0000   1.0000
     1.0000   1.0000   1.0000   1.0000   1.0000   1.0000   1.0000   1.0000
     1.0000   1.0000   0.0000   0.0000   0.0000   0.0000   0.0000   0.0000
     0.0000   0.0000

          k = 0.3000 0.4000 0.3228 (  1848 PWs)   bands (ev):

   -39.9766 -39.9709 -16.3576 -16.2855 -16.1851 -16.1296 -16.0524 -16.0106
     4.4631   4.5532   9.3852   9.9466  10.2853  10.9193  12.0526  12.2712
    13.8506  14.0979  16.5752  17.0979  17.6445  17.7373  18.6757  19.1080
    19.9724  20.2354

     occupation numbers 
     1.0000   1.0000   1.0000   1.0000   1.0000   1.0000   1.0000   1.0000
     1.0000   1.0000   1.0000   1.0000   1.0000   1.0000   1.0000   1.0000
     1.0000   1.0000   0.0000   0.0000   0.0000   0.0000   0.0000   0.0000
     0.0000   0.0000

          k = 0.3000 0.4000 0.4402 (  1855 PWs)   bands (ev):

   -39.9800 -39.9675 -16.3559 -16.2843 -16.1915 -16.1347 -16.0708 -15.9836
     4.3218   4.7102   9.4787   9.5023  10.6713  11.0803  11.8105  12.2831
    13.8463  14.2542  16.2145  17.0094  17.4986  18.1388  18.7922  18.9929
    20.0006  20.5227

     occupation numbers 
     1.0000   1.0000   1.0000   1.0000   1.0000   1.0000   1.0000   1.0000
     1.0000   1.0000   1.0000   1.0000   1.0000   1.0000   1.0000   1.0000
     1.0000   1.0000   0.0000   0.0000   0.0000   0.0000   0.0000   0.0000
     0.0000   0.0000

          k = 0.3000 0.4000-0.0293 (  1850 PWs)   bands (ev):

   -39.9821 -39.9654 -16.3552 -16.2831 -16.1914 -16.1431 -16.0834 -15.9641
     4.2537   4.7933   9.2435   9.6731  10.7437  11.1075  11.8073  12.2121
    13.9333  14.3589  15.9813  17.0663  17.1386  18.2131  18.8235  19.2708
    19.8839  20.9886

     occupation numbers 
     1.0000   1.0000   1.0000   1.0000   1.0000   1.0000   1.0000   1.0000
     1.0000   1.0000   1.0000   1.0000   1.0000   1.0000   1.0000   1.0000
     1.0000   1.0000   0.0000   0.0000   0.0000   0.0000   0.0000   0.0000
     0.0000   0.0000

          k = 0.3000 0.4000 0.0880 (  1853 PWs)   bands (ev):

   -39.9813 -39.9662 -16.3553 -16.2836 -16.1922 -16.1394 -16.0789 -15.9711
     4.2768   4.7645   9.3243   9.5978  10.7356  11.1276  11.7678  12.2493
    13.8917  14.3213  16.0638  17.0553  17.2492  18.2622  18.7582  19.1647
    19.9431  20.7800

     occupation numbers 
     1.0000   1.0000   1.0000   1.0000   1.0000   1.0000   1.0000   1.0000
     1.0000   1.0000   1.0000   1.0000   1.0000   1.0000   1.0000   1.0000
     1.0000   1.0000   0.0000   0.0000   0.0000   0.0000   0.0000   0.0000
     0.0000   0.0000

          k = 0.3000-0.5000-0.0587 (  1849 PWs)   bands (ev):

   -39.9776 -39.9667 -16.3798 -16.2807 -16.2069 -16.1320 -16.0672 -15.9867
     4.4767   4.6831   9.1733   9.6992  10.4511  11.0870  12.0347  12.1507
    13.9053  14.2637  16.3730  17.4706  17.6132  17.7828  18.7035  18.9836
    19.8668  20.5397

     occupation numbers 
     1.0000   1.0000   1.0000   1.0000   1.0000   1.0000   1.0000   1.0000
     1.0000   1.0000   1.0000   1.0000   1.0000   1.0000   1.0000   1.0000
     1.0000   1.0000   0.0000   0.0000   0.0000   0.0000   0.0000   0.0000
     0.0000   0.0000

          k = 0.3000-0.5000 0.1761 (  1853 PWs)   bands (ev):

   -39.9776 -39.9667 -16.3795 -16.2808 -16.2085 -16.1310 -16.0664 -15.9874
     4.4764   4.6835   9.2953   9.4836  10.5652  11.1084  11.9924  12.1592
    13.9078  14.2344  16.3381  17.5082  17.6358  17.9456  18.6105  18.8334
    19.9646  20.6311

     occupation numbers 
     1.0000   1.0000   1.0000   1.0000   1.0000   1.0000   1.0000   1.0000
     1.0000   1.0000   1.0000   1.0000   1.0000   1.0000   1.0000   1.0000
     1.0000   1.0000   0.0000   0.0000   0.0000   0.0000   0.0000   0.0000
     0.0000   0.0000

          k = 0.3000-0.5000-0.2935 (  1849 PWs)   bands (ev):

   -39.9776 -39.9667 -16.3800 -16.2806 -16.2060 -16.1328 -16.0678 -15.9862
     4.4769   4.6829   9.1312   9.8236  10.3552  11.0764  12.0639  12.1407
    13.9037  14.2821  16.3985  17.4232  17.5951  17.7332  18.7351  19.0835
    19.8043  20.4954

     occupation numbers 
     1.0000   1.0000   1.0000   1.0000   1.0000   1.0000   1.0000   1.0000
     1.0000   1.0000   1.0000   1.0000   1.0000   1.0000   1.0000   1.0000
     1.0000   1.0000   0.0000   0.0000   0.0000   0.0000   0.0000   0.0000
     0.0000   0.0000

          k = 0.3000-0.3000-0.0000 (  1855 PWs)   bands (ev):

   -39.9890 -39.9668 -16.2977 -16.2895 -16.1803 -16.1282 -16.0909 -15.9466
     3.9051   4.8420   9.6013   9.6354  10.7875  11.3539  11.5794  12.5237
    14.0681  14.2675  15.4084  16.6034  16.7580  18.2766  18.8070  19.5443
    19.6529  20.8126

     occupation numbers 
     1.0000   1.0000   1.0000   1.0000   1.0000   1.0000   1.0000   1.0000
     1.0000   1.0000   1.0000   1.0000   1.0000   1.0000   1.0000   1.0000
     1.0000   1.0000   0.0000   0.0000   0.0000   0.0000   0.0000   0.0000
     0.0000   0.0000

          k = 0.3000-0.3000 0.1174 (  1859 PWs)   bands (ev):

   -39.9869 -39.9690 -16.2952 -16.2928 -16.1740 -16.1252 -16.0804 -15.9661
     3.9814   4.7374   9.6627   9.7257  10.7468  11.3204  11.5170  12.4870
    13.8812  14.2278  15.7683  16.5039  17.0901  18.3237  18.7380  19.2831
    19.7953  20.4913

     occupation numbers 
     1.0000   1.0000   1.0000   1.0000   1.0000   1.0000   1.0000   1.0000
     1.0000   1.0000   1.0000   1.0000   1.0000   1.0000   1.0000   1.0000
     1.0000   1.0000   0.0000   0.0000   0.0000   0.0000   0.0000   0.0000
     0.0000   0.0000

          k = 0.3000-0.3000 0.2348 (  1850 PWs)   bands (ev):

   -39.9813 -39.9745 -16.2965 -16.2954 -16.1485 -16.1265 -16.0548 -16.0124
     4.1926   4.4801   9.8782   9.9207  10.5995  10.7876  11.9365  12.3230
    13.7870  14.0082  16.4240  16.6475  17.5001  17.6920  18.9113  19.0054
    19.9544  20.1124

     occupation numbers 
     1.0000   1.0000   1.0000   1.0000   1.0000   1.0000   1.0000   1.0000
     1.0000   1.0000   1.0000   1.0000   1.0000   1.0000   1.0000   1.0000
     1.0000   1.0000   0.0000   0.0000   0.0000   0.0000   0.0000   0.0000
     0.0000   0.0000

          k = 0.4000 0.4000 0.2348 (  1838 PWs)   bands (ev):

   -39.9714 -39.9678 -16.3463 -16.3439 -16.1805 -16.1741 -16.0431 -16.0156
     4.5336   4.6374   9.5852   9.6941  10.4523  10.4624  12.0435  12.1170
    14.0687  14.2570  17.0315  17.2484  17.8576  17.8833  18.7188  19.0552
    20.6413  20.7452

     occupation numbers 
     1.0000   1.0000   1.0000   1.0000   1.0000   1.0000   1.0000   1.0000
     1.0000   1.0000   1.0000   1.0000   1.0000   1.0000   1.0000   1.0000
     1.0000   1.0000   0.0000   0.0000   0.0000   0.0000   0.0000   0.0000
     0.0000   0.0000

          k = 0.4000 0.4000 0.4696 (  1843 PWs)   bands (ev):

   -39.9743 -39.9650 -16.3457 -16.3425 -16.1843 -16.1742 -16.0664 -15.9903
     4.4564   4.7242   9.4841   9.5633  10.5354  10.8203  11.8335  12.0579
    13.9601  14.4925  16.7562  17.3161  17.5590  18.2451  19.0246  19.0893
    20.2991  20.7069

     occupation numbers 
     1.0000   1.0000   1.0000   1.0000   1.0000   1.0000   1.0000   1.0000
     1.0000   1.0000   1.0000   1.0000   1.0000   1.0000   1.0000   1.0000
     1.0000   1.0004   0.0000   0.0000   0.0000   0.0000   0.0000   0.0000
     0.0000   0.0000

          k = 0.4000 0.4000 0.0000 (  1847 PWs)   bands (ev):

   -39.9754 -39.9639 -16.3444 -16.3430 -16.1832 -16.1761 -16.0769 -15.9799
     4.4290   4.7569   9.4818   9.4961  10.5102  11.0264  11.7360  12.0272
    13.9177  14.6049  16.6527  17.2903  17.4328  18.4358  18.9907  19.3296
    20.0437  20.6756

     occupation numbers 
     1.0000   1.0000   1.0000   1.0000   1.0000   1.0000   1.0000   1.0000
     1.0000   1.0000   1.0000   1.0000   1.0000   1.0000   1.0000   1.0000
     1.0000   1.0301   0.0000   0.0000   0.0000   0.0000   0.0000   0.0000
     0.0000   0.0000

          k = 0.4000-0.5000-0.0293 (  1845 PWs)   bands (ev):

   -39.9709 -39.9652 -16.3677 -16.3400 -16.1976 -16.1744 -16.0522 -16.0031
     4.5512   4.6771   9.4767   9.7959  10.2244  10.6296  11.9959  12.0171
    14.0687  14.4949  17.0928  17.6082  17.7640  18.0435  18.8188  19.0310
    20.2003  20.9727

     occupation numbers 
     1.0000   1.0000   1.0000   1.0000   1.0000   1.0000   1.0000   1.0000
     1.0000   1.0000   1.0000   1.0000   1.0000   1.0000   1.0000   1.0000
     1.0000   1.0005   0.0000   0.0000   0.0000   0.0000   0.0000   0.0000
     0.0000   0.0000

          k = 0.4000-0.5000 0.0880 (  1837 PWs)   bands (ev):

   -39.9709 -39.9652 -16.3676 -16.3399 -16.1981 -16.1741 -16.0514 -16.0035
     4.5507   4.6779   9.4969   9.7092  10.3250  10.6210  11.9726  12.0055
    14.0868  14.4791  17.0920  17.6573  17.7553  18.0533  18.7455  19.0537
    20.1962  20.9913

     occupation numbers 
     1.0000   1.0000   1.0000   1.0000   1.0000   1.0000   1.0000   1.0000
     1.0000   1.0000   1.0000   1.0000   1.0000   1.0000   1.0000   1.0000
     1.0000   1.0002   0.0000   0.0000   0.0000   0.0000   0.0000   0.0000
     0.0000   0.0000

          k = 0.4000-0.5000-0.1467 (  1832 PWs)   bands (ev):

   -39.9709 -39.9652 -16.3676 -16.3399 -16.1985 -16.1739 -16.0509 -16.0038
     4.5503   4.6784   9.5174   9.6564  10.3839  10.6105  11.9573  11.9990
    14.0985  14.4688  17.0915  17.6973  17.7408  18.0618  18.7012  19.0635
    20.1934  21.1603

     occupation numbers 
     1.0000   1.0000   1.0000   1.0000   1.0000   1.0000   1.0000   1.0000
     1.0000   1.0000   1.0000   1.0000   1.0000   1.0000   1.0000   1.0000
     1.0000   1.0001   0.0000   0.0000   0.0000   0.0000   0.0000   0.0000
     0.0000   0.0000

          k =-0.5000-0.5000-0.2935 (  1842 PWs)   bands (ev):

   -39.9665 -39.9665 -16.3630 -16.3630 -16.1937 -16.1937 -16.0262 -16.0262
     4.6237   4.6237   9.7911   9.7911  10.1964  10.1964  12.0008  12.0008
    14.3660  14.3660  17.7538  17.7538  17.8743  17.8743  18.8513  18.8513
    20.5212  20.5212

     occupation numbers 
     1.0000   1.0000   1.0000   1.0000   1.0000   1.0000   1.0000   1.0000
     1.0000   1.0000   1.0000   1.0000   1.0000   1.0000   1.0000   1.0000
     1.0000   1.0000   0.0000   0.0000   0.0000   0.0000   0.0000   0.0000
     0.0000   0.0000

          k =-0.5000-0.5000-0.1761 (  1842 PWs)   bands (ev):

   -39.9665 -39.9665 -16.3630 -16.3630 -16.1937 -16.1937 -16.0261 -16.0261
     4.6239   4.6239   9.7376   9.7376  10.2761  10.2761  11.9620  11.9620
    14.3812  14.3812  17.7646  17.7646  17.8565  17.8565  18.8544  18.8544
    20.5355  20.5356

     occupation numbers 
     1.0000   1.0000   1.0000   1.0000   1.0000   1.0000   1.0000   1.0000
     1.0000   1.0000   1.0000   1.0000   1.0000   1.0000   1.0000   1.0000
     1.0000   1.0000   0.0000   0.0000   0.0000   0.0000   0.0000   0.0000
     0.0000   0.0000

          k =-0.5000-0.5000-0.0587 (  1836 PWs)   bands (ev):

   -39.9665 -39.9665 -16.3630 -16.3630 -16.1937 -16.1937 -16.0261 -16.0261
     4.6238   4.6238   9.7687   9.7687  10.2287  10.2287  11.9861  11.9861
    14.3719  14.3719  17.7575  17.7575  17.8679  17.8679  18.8525  18.8525
    20.5266  20.5266

     occupation numbers 
     1.0000   1.0000   1.0000   1.0000   1.0000   1.0000   1.0000   1.0000
     1.0000   1.0000   1.0000   1.0000   1.0000   1.0000   1.0000   1.0000
     1.0000   1.0000   0.0000   0.0000   0.0000   0.0000   0.0000   0.0000
     0.0000   0.0000

     the Fermi energy is    14.8185 ev

!    total energy              =    -688.47129270 Ry
     estimated scf accuracy    <          1.7E-10 Ry
     smearing contrib. (-TS)   =      -0.00001771 Ry
     internal energy E=F+TS    =    -688.47127498 Ry

     The total energy is F=E-TS. E is the sum of the following terms:
     one-electron contribution =     -37.27077220 Ry
     hartree contribution      =      39.40986621 Ry
     xc contribution           =     -66.44804226 Ry
     ewald contribution        =    -215.34496258 Ry
     one-center paw contrib.   =    -408.81736416 Ry
      -> PAW hartree energy AE =     136.90166590 Ry
      -> PAW hartree energy PS =    -136.14237767 Ry
      -> PAW xc energy AE      =    -463.28208253 Ry
      -> PAW xc energy PS      =      53.70543014 Ry
      -> total E_H with PAW    =      40.16915444 Ry
      -> total E_XC with PAW   =    -476.02469464 Ry

     convergence has been achieved in  10 iterations

     Forces acting on atoms (cartesian axes, Ry/au):

     atom    1 type  1   force =     0.00000000    0.00000000    0.00008427
     atom    2 type  1   force =     0.00000000    0.00000000    0.00008427
     atom    3 type  2   force =     0.00000000    0.00000000   -0.00008427
     atom    4 type  2   force =     0.00000000    0.00000000   -0.00008427
     The non-local contrib.  to forces
     atom    1 type  1   force =     0.00000000    0.00000000   -0.00393630
     atom    2 type  1   force =     0.00000000    0.00000000   -0.00393630
     atom    3 type  2   force =     0.00000000    0.00000000   -0.00410077
     atom    4 type  2   force =     0.00000000    0.00000000   -0.00410077
     The ionic contribution  to forces
     atom    1 type  1   force =     0.00000000    0.00000000   -0.10637256
     atom    2 type  1   force =    -0.00000000    0.00000000   -0.10637256
     atom    3 type  2   force =     0.00000000    0.00000000    0.10637256
     atom    4 type  2   force =    -0.00000000    0.00000000    0.10637256
     The local contribution  to forces
     atom    1 type  1   force =    -0.00000000   -0.00000000    0.11000236
     atom    2 type  1   force =    -0.00000000   -0.00000000    0.11000236
     atom    3 type  2   force =    -0.00000000   -0.00000000   -0.10237334
     atom    4 type  2   force =    -0.00000000   -0.00000000   -0.10237334
     The core correction contribution to forces
     atom    1 type  1   force =    -0.00000001   -0.00000009    0.00039148
     atom    2 type  1   force =    -0.00000009   -0.00000001    0.00039148
     atom    3 type  2   force =    -0.00000000   -0.00000001    0.00001630
     atom    4 type  2   force =    -0.00000001   -0.00000000    0.00001630
     The Hubbard contrib.    to forces
     atom    1 type  1   force =     0.00000000    0.00000000    0.00000000
     atom    2 type  1   force =     0.00000000    0.00000000    0.00000000
     atom    3 type  2   force =     0.00000000    0.00000000    0.00000000
     atom    4 type  2   force =     0.00000000    0.00000000    0.00000000
     The SCF correction term to forces
     atom    1 type  1   force =    -0.00000000    0.00000000   -0.00000143
     atom    2 type  1   force =     0.00000000   -0.00000000   -0.00000143
     atom    3 type  2   force =     0.00000000    0.00000000    0.00000027
     atom    4 type  2   force =     0.00000000    0.00000000    0.00000027

     Total force =     0.000169     Total SCF correction =     0.000002


     Computing stress (Cartesian axis) and pressure

          total   stress  (Ry/bohr**3)                   (kbar)     P=      -66.64
  -0.00047602   0.00000000   0.00000000          -70.02        0.00        0.00
   0.00000000  -0.00047602   0.00000000            0.00      -70.02        0.00
   0.00000000   0.00000000  -0.00040692            0.00        0.00      -59.86

     kinetic stress (kbar)  21865.31      0.00      0.00
                                0.00  21865.31      0.00
                                0.00      0.00  22083.84

     local   stress (kbar)  -6023.41     -0.00      0.00
                               -0.00  -6023.41      0.00
                                0.00      0.00  -5258.82

     nonloc. stress (kbar)   8544.77      0.00      0.00
                                0.00   8544.77      0.00
                                0.00      0.00   8475.49

     hartree stress (kbar)   4430.84     -0.00     -0.00
                               -0.00   4430.84     -0.00
                               -0.00     -0.00   4474.07

     exc-cor stress (kbar)   6099.29     -0.00      0.00
                               -0.00   6099.29      0.00
                                0.00      0.00   6099.12

     corecor stress (kbar) -11013.36     -0.00      0.00
                               -0.00 -11013.36      0.00
                                0.00      0.00 -11010.75

     ewald   stress (kbar) -23973.47      0.00     -0.00
                                0.00 -23973.47     -0.00
                               -0.00     -0.00 -24922.81

     hubbard stress (kbar)      0.00      0.00      0.00
                                0.00      0.00      0.00
                                0.00      0.00      0.00

     DFT-D   stress (kbar)      0.00      0.00      0.00
                                0.00      0.00      0.00
                                0.00      0.00      0.00

     XDM     stress (kbar)      0.00      0.00      0.00
                                0.00      0.00      0.00
                                0.00      0.00      0.00

     dft-nl  stress (kbar)      0.00      0.00      0.00
                                0.00      0.00      0.00
                                0.00      0.00      0.00

     TS-vdW  stress (kbar)      0.00      0.00      0.00
                                0.00      0.00      0.00
                                0.00      0.00      0.00

     MDB     stress (kbar)      0.00      0.00      0.00
                                0.00      0.00      0.00
                                0.00      0.00      0.00

     3D-RISM stress (kbar)      0.00      0.00      0.00
                                0.00      0.00      0.00
                                0.00      0.00      0.00


     Writing all to output data dir ./out/NbP_bulk.save/
 
     init_run     :      1.95s CPU      2.10s WALL (       1 calls)
     electrons    :     43.66s CPU     44.86s WALL (       1 calls)
     forces       :      0.49s CPU      0.54s WALL (       1 calls)
     stress       :      5.26s CPU      5.37s WALL (       1 calls)

     Called by init_run:
     wfcinit      :      1.18s CPU      1.22s WALL (       1 calls)
     wfcinit:atom :      0.03s CPU      0.03s WALL (      84 calls)
     wfcinit:wfcr :      0.99s CPU      1.04s WALL (      84 calls)
     potinit      :      0.26s CPU      0.27s WALL (       1 calls)
     hinit0       :      0.41s CPU      0.45s WALL (       1 calls)

     Called by electrons:
     c_bands      :     33.25s CPU     33.57s WALL (      10 calls)
     sum_band     :      7.24s CPU      7.72s WALL (      10 calls)
     v_of_rho     :      0.30s CPU      0.32s WALL (      11 calls)
     v_h          :      0.01s CPU      0.01s WALL (      11 calls)
     v_xc         :      0.34s CPU      0.36s WALL (      13 calls)
     newd         :      0.99s CPU      1.42s WALL (      11 calls)
     PAW_pot      :      2.12s CPU      2.13s WALL (      11 calls)
     mix_rho      :      0.03s CPU      0.03s WALL (      10 calls)

     Called by c_bands:
     init_us_2    :      0.83s CPU      0.85s WALL (    1932 calls)
     init_us_2:cp :      0.83s CPU      0.84s WALL (    1932 calls)
     cegterg      :     27.86s CPU     28.10s WALL (     840 calls)

     Called by sum_band:
     sum_band:wei :      0.02s CPU      0.02s WALL (      10 calls)
     sum_band:loo :      5.53s CPU      5.62s WALL (      10 calls)
     sum_band:buf :      0.12s CPU      0.12s WALL (     840 calls)
     sum_band:ini :      0.36s CPU      0.37s WALL (     840 calls)
     sum_band:cal :      0.34s CPU      0.34s WALL (     840 calls)
     sum_band:bec :      0.01s CPU      0.01s WALL (     840 calls)
     addusdens    :      1.66s CPU      2.03s WALL (      10 calls)
                                        0.00s GPU  (      10 calls)
     addusd:skk   :      0.01s CPU      0.01s WALL (      20 calls)
                                        0.00s GPU  (      20 calls)

     Called by *egterg:
     cdiaghg      :      1.78s CPU      1.81s WALL (    3509 calls)
     cegterg:over :      1.11s CPU      1.12s WALL (    2669 calls)
     cegterg:upda :      0.67s CPU      0.68s WALL (    2669 calls)
     cegterg:last :      1.22s CPU      1.24s WALL (    1878 calls)
     h_psi        :     22.11s CPU     22.32s WALL (    3593 calls)
     s_psi        :      1.07s CPU      1.08s WALL (    3593 calls)
     g_psi        :      0.15s CPU      0.15s WALL (    2669 calls)

     Called by h_psi:
     h_psi:calbec :      1.06s CPU      1.08s WALL (    3593 calls)
     vloc_psi     :     19.81s CPU     19.99s WALL (    3593 calls)
     add_vuspsi   :      1.08s CPU      1.09s WALL (    3593 calls)

     General routines
     calbec       :      1.56s CPU      1.58s WALL (    4853 calls)
     fft          :      0.07s CPU      0.11s WALL (     166 calls)
     ffts         :      0.00s CPU      0.00s WALL (      21 calls)
     fftw         :     15.71s CPU     15.86s WALL (  142382 calls)
     interpolate  :      0.01s CPU      0.01s WALL (      11 calls)
 
     Parallel routines

     PAW routines
     PAW_pot      :      2.12s CPU      2.13s WALL (      11 calls)
     PAW_symme    :      0.00s CPU      0.00s WALL (      21 calls)
 
     PWSCF        :     51.53s CPU     53.89s WALL

 
   This run was terminated on:  16:58:49  20Feb2024            

=------------------------------------------------------------------------------=
   JOB DONE.
=------------------------------------------------------------------------------=
