
     Program PWSCF v.7.2 starts on 19Feb2024 at 11:49:31 

     This program is part of the open-source Quantum ESPRESSO suite
     for quantum simulation of materials; please cite
         "P. Giannozzi et al., J. Phys.:Condens. Matter 21 395502 (2009);
         "P. Giannozzi et al., J. Phys.:Condens. Matter 29 465901 (2017);
         "P. Giannozzi et al., J. Chem. Phys. 152 154105 (2020);
          URL http://www.quantum-espresso.org", 
     in publications or presentations arising from this work. More details at
     http://www.quantum-espresso.org/quote

     Parallel version (MPI), running on     1 processors

     MPI processes distributed on     1 nodes
     158087 MiB available memory on the printing compute node when the environment starts
 
     Waiting for input...
     Reading input from standard input

     Current dimensions of program PWSCF are:
     Max number of different atomic species (ntypx) = 10
     Max number of k-points (npk) =  40000
     Max angular momentum in pseudopotentials (lmaxx) =  4

     Atomic positions and unit cell read from directory:
     ./out/NbP_bulk.save/
     Atomic positions from file used, from input discarded
 
     file Nb.pbesol-spn-kjpaw_psl.0.3.0.UPF: wavefunction(s)  4S 4P renormalized
     Message from routine setup:
     using ibrav=0 with symmetry is DISCOURAGED, use correct ibrav instead
 
     Subspace diagonalization in iterative solution of the eigenvalue problem:
     a serial algorithm will be used

 
     G-vector sticks info
     --------------------
     sticks:   dense  smooth     PW     G-vecs:    dense   smooth      PW
     Sum        1033     509    161                41977    14855    2505
 
     Using Slab Decomposition
 


     bravais-lattice index     =            0
     lattice parameter (alat)  =       6.3427  a.u.
     unit-cell volume          =     434.7255 (a.u.)^3
     number of atoms/cell      =            4
     number of atomic types    =            2
     number of electrons       =        36.00
     number of Kohn-Sham states=           22
     kinetic-energy cutoff     =      40.0000  Ry
     charge density cutoff     =     320.0000  Ry
     Exchange-correlation= PBESOL
                           (   1   4  10   8   0   0   0)

     celldm(1)=  11.699669  celldm(2)=   0.000000  celldm(3)=   0.000000
     celldm(4)=   0.000000  celldm(5)=   0.000000  celldm(6)=   0.000000

     crystal axes: (cart. coord. in units of alat)
               a(1) = (   1.000000   0.000000   0.000000 )  
               a(2) = (   0.000000   1.000000   0.000000 )  
               a(3) = (  -0.500000  -0.500000   1.703659 )  

     reciprocal axes: (cart. coord. in units 2 pi/alat)
               b(1) = (  1.000000  0.000000  0.293486 )  
               b(2) = (  0.000000  1.000000  0.293486 )  
               b(3) = (  0.000000  0.000000  0.586972 )  


     PseudoPot. # 1 for Nb read from file:
     ./pseudo/Nb.pbesol-spn-kjpaw_psl.0.3.0.UPF
     MD5 check sum: 3501bca1474143575298708b2d32ca28
     Pseudo is Projector augmented-wave + core cor, Zval = 13.0
     Generated using "atomic" code by A. Dal Corso  v.6.0 svn rev. 13079
     Shape of augmentation charge: PSQ
     Using radial grid of 1227 points,  6 beta functions with: 
                l(1) =   0
                l(2) =   0
                l(3) =   1
                l(4) =   1
                l(5) =   2
                l(6) =   2
     Q(r) pseudized with 0 coefficients 


     PseudoPot. # 2 for P  read from file:
     ./pseudo/P.pbesol-n-rrkjus_psl.1.0.0.UPF
     MD5 check sum: bbb94b1b16383820d6a769669b5d42db
     Pseudo is Ultrasoft + core correction, Zval =  5.0
     Generated using "atomic" code by A. Dal Corso  v.6.0 svn rev. 13079
     Using radial grid of 1147 points,  6 beta functions with: 
                l(1) =   0
                l(2) =   0
                l(3) =   1
                l(4) =   1
                l(5) =   2
                l(6) =   2
     Q(r) pseudized with 0 coefficients 


     atomic species   valence    mass     pseudopotential
        Nb            13.00    92.90638     Nb( 1.00)
        P              5.00    30.97376     P ( 1.00)

      8 Sym. Ops. (no inversion) found ( 4 have fractional translation)


                                    s                        frac. trans.

      isym =  1     identity                                     

 cryst.   s( 1) = (     1          0          0      )
                  (     0          1          0      )
                  (     0          0          1      )

 cart.    s( 1) = (  1.0000000  0.0000000  0.0000000 )
                  (  0.0000000  1.0000000  0.0000000 )
                  (  0.0000000  0.0000000  1.0000000 )


      isym =  2     180 deg rotation - cart. axis [0,0,1]        

 cryst.   s( 2) = (    -1          0          0      )
                  (     0         -1          0      )
                  (     1          1          1      )

 cart.    s( 2) = ( -1.0000000  0.0000000  0.0000000 )
                  (  0.0000000 -1.0000000  0.0000000 )
                  (  0.0000000  0.0000000  1.0000000 )


      isym =  3      90 deg rotation - cart. axis [0,0,-1]       

 cryst.   s( 3) = (     0         -1          0      )    f =( -0.2500000 )
                  (     1          0          0      )       (  0.2500000 )
                  (     0          1          1      )       ( -0.5000000 )

 cart.    s( 3) = (  0.0000000  1.0000000  0.0000000 )    f =(  0.0000000 )
                  ( -1.0000000  0.0000000  0.0000000 )       (  0.5000000 )
                  (  0.0000000  0.0000000  1.0000000 )       ( -0.8518294 )


      isym =  4      90 deg rotation - cart. axis [0,0,1]        

 cryst.   s( 4) = (     0          1          0      )    f =( -0.2500000 )
                  (    -1          0          0      )       (  0.2500000 )
                  (     1          0          1      )       ( -0.5000000 )

 cart.    s( 4) = (  0.0000000 -1.0000000  0.0000000 )    f =(  0.0000000 )
                  (  1.0000000  0.0000000  0.0000000 )       (  0.5000000 )
                  (  0.0000000  0.0000000  1.0000000 )       ( -0.8518294 )


      isym =  5     inv. 180 deg rotation - cart. axis [0,1,0]   

 cryst.   s( 5) = (     1          0          0      )
                  (     0         -1          0      )
                  (     0          1          1      )

 cart.    s( 5) = (  1.0000000  0.0000000  0.0000000 )
                  (  0.0000000 -1.0000000  0.0000000 )
                  (  0.0000000  0.0000000  1.0000000 )


      isym =  6     inv. 180 deg rotation - cart. axis [1,0,0]   

 cryst.   s( 6) = (    -1          0          0      )
                  (     0          1          0      )
                  (     1          0          1      )

 cart.    s( 6) = ( -1.0000000  0.0000000  0.0000000 )
                  (  0.0000000  1.0000000  0.0000000 )
                  (  0.0000000  0.0000000  1.0000000 )


      isym =  7     inv. 180 deg rotation - cart. axis [1,1,0]   

 cryst.   s( 7) = (     0         -1          0      )    f =( -0.2500000 )
                  (    -1          0          0      )       (  0.2500000 )
                  (     1          1          1      )       ( -0.5000000 )

 cart.    s( 7) = (  0.0000000 -1.0000000  0.0000000 )    f =(  0.0000000 )
                  ( -1.0000000  0.0000000  0.0000000 )       (  0.5000000 )
                  (  0.0000000  0.0000000  1.0000000 )       ( -0.8518294 )


      isym =  8     inv. 180 deg rotation - cart. axis [1,-1,0]  

 cryst.   s( 8) = (     0          1          0      )    f =( -0.2500000 )
                  (     1          0          0      )       (  0.2500000 )
                  (     0          0          1      )       ( -0.5000000 )

 cart.    s( 8) = (  0.0000000  1.0000000  0.0000000 )    f =(  0.0000000 )
                  (  1.0000000  0.0000000  0.0000000 )       (  0.5000000 )
                  (  0.0000000  0.0000000  1.0000000 )       ( -0.8518294 )


   Cartesian axes

     site n.     atom                  positions (alat units)
         1           Nb  tau(   1) = (   0.0000000   0.0000000   1.7033964  )
         2           Nb  tau(   2) = (   0.5000000   0.0000000   0.8515670  )
         3           P   tau(   3) = (   0.5000000   0.5000000   1.4223745  )
         4           P   tau(   4) = (   0.0000000   0.5000000   0.5705451  )

   Crystallographic axes

     site n.     atom                  positions (cryst. coord.)
         1           Nb  tau(   1) = (  0.4999230  0.4999230  0.9998460  )
         2           Nb  tau(   2) = (  0.7499230  0.2499230  0.4998460  )
         3           P   tau(   3) = (  0.9174470  0.9174470  0.8348940  )
         4           P   tau(   4) = (  0.1674470  0.6674470  0.3348940  )

     number of k points=   386  Marzari-Vanderbilt smearing, width (Ry)=  0.0073
                       cart. coord. in units 2pi/alat
        k(    1) = (   0.0000000   0.0000000   0.0000000), wk =   0.0051813
        k(    2) = (   0.0000000   0.0000000   0.0065219), wk =   0.0051813
        k(    3) = (   0.0000000   0.0000000   0.0130438), wk =   0.0051813
        k(    4) = (   0.0000000   0.0000000   0.0195657), wk =   0.0051813
        k(    5) = (   0.0000000   0.0000000   0.0260876), wk =   0.0051813
        k(    6) = (   0.0000000   0.0000000   0.0326096), wk =   0.0051813
        k(    7) = (   0.0000000   0.0000000   0.0391315), wk =   0.0051813
        k(    8) = (   0.0000000   0.0000000   0.0456534), wk =   0.0051813
        k(    9) = (   0.0000000   0.0000000   0.0521753), wk =   0.0051813
        k(   10) = (   0.0000000   0.0000000   0.0586972), wk =   0.0051813
        k(   11) = (   0.0000000   0.0000000   0.0652191), wk =   0.0051813
        k(   12) = (   0.0000000   0.0000000   0.0717410), wk =   0.0051813
        k(   13) = (   0.0000000   0.0000000   0.0782629), wk =   0.0051813
        k(   14) = (   0.0000000   0.0000000   0.0847848), wk =   0.0051813
        k(   15) = (   0.0000000   0.0000000   0.0913068), wk =   0.0051813
        k(   16) = (   0.0000000   0.0000000   0.0978287), wk =   0.0051813
        k(   17) = (   0.0000000   0.0000000   0.1043506), wk =   0.0051813
        k(   18) = (   0.0000000   0.0000000   0.1108725), wk =   0.0051813
        k(   19) = (   0.0000000   0.0000000   0.1173944), wk =   0.0051813
        k(   20) = (   0.0000000   0.0000000   0.1239163), wk =   0.0051813
        k(   21) = (   0.0000000   0.0000000   0.1304382), wk =   0.0051813
        k(   22) = (   0.0000000   0.0000000   0.1369601), wk =   0.0051813
        k(   23) = (   0.0000000   0.0000000   0.1434820), wk =   0.0051813
        k(   24) = (   0.0000000   0.0000000   0.1500040), wk =   0.0051813
        k(   25) = (   0.0000000   0.0000000   0.1565259), wk =   0.0051813
        k(   26) = (   0.0000000   0.0000000   0.1630478), wk =   0.0051813
        k(   27) = (   0.0000000   0.0000000   0.1695697), wk =   0.0051813
        k(   28) = (   0.0000000   0.0000000   0.1760916), wk =   0.0051813
        k(   29) = (   0.0000000   0.0000000   0.1826135), wk =   0.0051813
        k(   30) = (   0.0000000   0.0000000   0.1891354), wk =   0.0051813
        k(   31) = (   0.0000000   0.0000000   0.1956573), wk =   0.0051813
        k(   32) = (   0.0000000   0.0000000   0.2021792), wk =   0.0051813
        k(   33) = (   0.0000000   0.0000000   0.2087012), wk =   0.0051813
        k(   34) = (   0.0000000   0.0000000   0.2152231), wk =   0.0051813
        k(   35) = (   0.0000000   0.0000000   0.2217450), wk =   0.0051813
        k(   36) = (   0.0000000   0.0000000   0.2282669), wk =   0.0051813
        k(   37) = (   0.0000000   0.0000000   0.2347888), wk =   0.0051813
        k(   38) = (   0.0000000   0.0000000   0.2413107), wk =   0.0051813
        k(   39) = (   0.0000000   0.0000000   0.2478326), wk =   0.0051813
        k(   40) = (   0.0000000   0.0000000   0.2543545), wk =   0.0051813
        k(   41) = (   0.0000000   0.0000000   0.2608764), wk =   0.0051813
        k(   42) = (   0.0000000   0.0000000   0.2673984), wk =   0.0051813
        k(   43) = (   0.0000000   0.0000000   0.2739203), wk =   0.0051813
        k(   44) = (   0.0000000   0.0000000   0.2804422), wk =   0.0051813
        k(   45) = (   0.0000000   0.0000000   0.2869641), wk =   0.0051813
        k(   46) = (   0.0000000   0.0000000   0.2934860), wk =   0.0051813
        k(   47) = (   0.0060924   0.0000000   0.2934860), wk =   0.0051813
        k(   48) = (   0.0121848   0.0000000   0.2934859), wk =   0.0051813
        k(   49) = (   0.0182772   0.0000000   0.2934859), wk =   0.0051813
        k(   50) = (   0.0243696   0.0000000   0.2934858), wk =   0.0051813
        k(   51) = (   0.0304620   0.0000000   0.2934858), wk =   0.0051813
        k(   52) = (   0.0365544   0.0000000   0.2934858), wk =   0.0051813
        k(   53) = (   0.0426468   0.0000000   0.2934857), wk =   0.0051813
        k(   54) = (   0.0487392   0.0000000   0.2934857), wk =   0.0051813
        k(   55) = (   0.0548316   0.0000000   0.2934857), wk =   0.0051813
        k(   56) = (   0.0609240   0.0000000   0.2934856), wk =   0.0051813
        k(   57) = (   0.0670164   0.0000000   0.2934856), wk =   0.0051813
        k(   58) = (   0.0731088   0.0000000   0.2934855), wk =   0.0051813
        k(   59) = (   0.0792012   0.0000000   0.2934855), wk =   0.0051813
        k(   60) = (   0.0852936   0.0000000   0.2934855), wk =   0.0051813
        k(   61) = (   0.0913860   0.0000000   0.2934854), wk =   0.0051813
        k(   62) = (   0.0974784   0.0000000   0.2934854), wk =   0.0051813
        k(   63) = (   0.1035708   0.0000000   0.2934853), wk =   0.0051813
        k(   64) = (   0.1096632   0.0000000   0.2934853), wk =   0.0051813
        k(   65) = (   0.1157556   0.0000000   0.2934853), wk =   0.0051813
        k(   66) = (   0.1218480   0.0000000   0.2934852), wk =   0.0051813
        k(   67) = (   0.1279404   0.0000000   0.2934852), wk =   0.0051813
        k(   68) = (   0.1340328   0.0000000   0.2934851), wk =   0.0051813
        k(   69) = (   0.1401252   0.0000000   0.2934851), wk =   0.0051813
        k(   70) = (   0.1462176   0.0000000   0.2934851), wk =   0.0051813
        k(   71) = (   0.1523100   0.0000000   0.2934850), wk =   0.0051813
        k(   72) = (   0.1584024   0.0000000   0.2934850), wk =   0.0051813
        k(   73) = (   0.1644948   0.0000000   0.2934849), wk =   0.0051813
        k(   74) = (   0.1705872   0.0000000   0.2934849), wk =   0.0051813
        k(   75) = (   0.1766796   0.0000000   0.2934849), wk =   0.0051813
        k(   76) = (   0.1827720   0.0000000   0.2934848), wk =   0.0051813
        k(   77) = (   0.1888644   0.0000000   0.2934848), wk =   0.0051813
        k(   78) = (   0.1949568   0.0000000   0.2934848), wk =   0.0051813
        k(   79) = (   0.2010492   0.0000000   0.2934847), wk =   0.0051813
        k(   80) = (   0.2071416   0.0000000   0.2934847), wk =   0.0051813
        k(   81) = (   0.2132340   0.0000000   0.2934846), wk =   0.0051813
        k(   82) = (   0.2193264   0.0000000   0.2934846), wk =   0.0051813
        k(   83) = (   0.2254188   0.0000000   0.2934846), wk =   0.0051813
        k(   84) = (   0.2315112   0.0000000   0.2934845), wk =   0.0051813
        k(   85) = (   0.2376036   0.0000000   0.2934845), wk =   0.0051813
        k(   86) = (   0.2436960   0.0000000   0.2934844), wk =   0.0051813
        k(   87) = (   0.2497884   0.0000000   0.2934844), wk =   0.0051813
        k(   88) = (   0.2558808   0.0000000   0.2934844), wk =   0.0051813
        k(   89) = (   0.2619732   0.0000000   0.2934843), wk =   0.0051813
        k(   90) = (   0.2680656   0.0000000   0.2934843), wk =   0.0051813
        k(   91) = (   0.2741580   0.0000000   0.2934842), wk =   0.0051813
        k(   92) = (   0.2802504   0.0000000   0.2934842), wk =   0.0051813
        k(   93) = (   0.2863428   0.0000000   0.2934842), wk =   0.0051813
        k(   94) = (   0.2924352   0.0000000   0.2934841), wk =   0.0051813
        k(   95) = (   0.2985276   0.0000000   0.2934841), wk =   0.0051813
        k(   96) = (   0.3046200   0.0000000   0.2934840), wk =   0.0051813
        k(   97) = (   0.3107124   0.0000000   0.2934840), wk =   0.0051813
        k(   98) = (   0.3168048   0.0000000   0.2934840), wk =   0.0051813
        k(   99) = (   0.3228972   0.0000000   0.2934839), wk =   0.0051813
        k(  100) = (   0.3289896   0.0000000   0.2934839), wk =   0.0051813
        k(  101) = (   0.3350820   0.0000000   0.2934839), wk =   0.0051813
        k(  102) = (   0.3411744   0.0000000   0.2934838), wk =   0.0051813
        k(  103) = (   0.3472668   0.0000000   0.2934838), wk =   0.0051813
        k(  104) = (   0.3533592   0.0000000   0.2934837), wk =   0.0051813
        k(  105) = (   0.3594516   0.0000000   0.2934837), wk =   0.0051813
        k(  106) = (   0.3655440   0.0000000   0.2934837), wk =   0.0051813
        k(  107) = (   0.3716364   0.0000000   0.2934836), wk =   0.0051813
        k(  108) = (   0.3777288   0.0000000   0.2934836), wk =   0.0051813
        k(  109) = (   0.3838212   0.0000000   0.2934835), wk =   0.0051813
        k(  110) = (   0.3899136   0.0000000   0.2934835), wk =   0.0051813
        k(  111) = (   0.3960060   0.0000000   0.2934835), wk =   0.0051813
        k(  112) = (   0.4020984   0.0000000   0.2934834), wk =   0.0051813
        k(  113) = (   0.4081908   0.0000000   0.2934834), wk =   0.0051813
        k(  114) = (   0.4142832   0.0000000   0.2934833), wk =   0.0051813
        k(  115) = (   0.4203756   0.0000000   0.2934833), wk =   0.0051813
        k(  116) = (   0.4264680   0.0000000   0.2934833), wk =   0.0051813
        k(  117) = (   0.4325604   0.0000000   0.2934832), wk =   0.0051813
        k(  118) = (   0.4386528   0.0000000   0.2934832), wk =   0.0051813
        k(  119) = (   0.4447452   0.0000000   0.2934831), wk =   0.0051813
        k(  120) = (   0.4508376   0.0000000   0.2934831), wk =   0.0051813
        k(  121) = (   0.4569300   0.0000000   0.2934831), wk =   0.0051813
        k(  122) = (   0.4585865   0.0000000   0.2878392), wk =   0.0051813
        k(  123) = (   0.4602431   0.0000000   0.2821954), wk =   0.0051813
        k(  124) = (   0.4618996   0.0000000   0.2765515), wk =   0.0051813
        k(  125) = (   0.4635562   0.0000000   0.2709077), wk =   0.0051813
        k(  126) = (   0.4652127   0.0000000   0.2652638), wk =   0.0051813
        k(  127) = (   0.4668692   0.0000000   0.2596200), wk =   0.0051813
        k(  128) = (   0.4685258   0.0000000   0.2539761), wk =   0.0051813
        k(  129) = (   0.4701823   0.0000000   0.2483323), wk =   0.0051813
        k(  130) = (   0.4718388   0.0000000   0.2426884), wk =   0.0051813
        k(  131) = (   0.4734954   0.0000000   0.2370446), wk =   0.0051813
        k(  132) = (   0.4751519   0.0000000   0.2314007), wk =   0.0051813
        k(  133) = (   0.4768085   0.0000000   0.2257569), wk =   0.0051813
        k(  134) = (   0.4784650   0.0000000   0.2201130), wk =   0.0051813
        k(  135) = (   0.4801215   0.0000000   0.2144692), wk =   0.0051813
        k(  136) = (   0.4817781   0.0000000   0.2088253), wk =   0.0051813
        k(  137) = (   0.4834346   0.0000000   0.2031815), wk =   0.0051813
        k(  138) = (   0.4850912   0.0000000   0.1975376), wk =   0.0051813
        k(  139) = (   0.4867477   0.0000000   0.1918938), wk =   0.0051813
        k(  140) = (   0.4884042   0.0000000   0.1862499), wk =   0.0051813
        k(  141) = (   0.4900608   0.0000000   0.1806061), wk =   0.0051813
        k(  142) = (   0.4917173   0.0000000   0.1749622), wk =   0.0051813
        k(  143) = (   0.4933738   0.0000000   0.1693184), wk =   0.0051813
        k(  144) = (   0.4950304   0.0000000   0.1636745), wk =   0.0051813
        k(  145) = (   0.4966869   0.0000000   0.1580307), wk =   0.0051813
        k(  146) = (   0.4983435   0.0000000   0.1523869), wk =   0.0051813
        k(  147) = (   0.5000000   0.0000000   0.1467430), wk =   0.0051813
        k(  148) = (   0.5016565   0.0000000   0.1410992), wk =   0.0051813
        k(  149) = (   0.5033131   0.0000000   0.1354553), wk =   0.0051813
        k(  150) = (   0.5049696   0.0000000   0.1298115), wk =   0.0051813
        k(  151) = (   0.5066262   0.0000000   0.1241676), wk =   0.0051813
        k(  152) = (   0.5082827   0.0000000   0.1185238), wk =   0.0051813
        k(  153) = (   0.5099392   0.0000000   0.1128799), wk =   0.0051813
        k(  154) = (   0.5115958   0.0000000   0.1072361), wk =   0.0051813
        k(  155) = (   0.5132523   0.0000000   0.1015922), wk =   0.0051813
        k(  156) = (   0.5149088   0.0000000   0.0959484), wk =   0.0051813
        k(  157) = (   0.5165654   0.0000000   0.0903045), wk =   0.0051813
        k(  158) = (   0.5182219   0.0000000   0.0846607), wk =   0.0051813
        k(  159) = (   0.5198785   0.0000000   0.0790168), wk =   0.0051813
        k(  160) = (   0.5215350   0.0000000   0.0733730), wk =   0.0051813
        k(  161) = (   0.5231915   0.0000000   0.0677291), wk =   0.0051813
        k(  162) = (   0.5248481   0.0000000   0.0620853), wk =   0.0051813
        k(  163) = (   0.5265046   0.0000000   0.0564414), wk =   0.0051813
        k(  164) = (   0.5281612   0.0000000   0.0507976), wk =   0.0051813
        k(  165) = (   0.5298177   0.0000000   0.0451537), wk =   0.0051813
        k(  166) = (   0.5314742   0.0000000   0.0395099), wk =   0.0051813
        k(  167) = (   0.5331308   0.0000000   0.0338660), wk =   0.0051813
        k(  168) = (   0.5347873   0.0000000   0.0282222), wk =   0.0051813
        k(  169) = (   0.5364438   0.0000000   0.0225783), wk =   0.0051813
        k(  170) = (   0.5381004   0.0000000   0.0169345), wk =   0.0051813
        k(  171) = (   0.5397569   0.0000000   0.0112906), wk =   0.0051813
        k(  172) = (   0.5414135   0.0000000   0.0056468), wk =   0.0051813
        k(  173) = (   0.5430700   0.0000000   0.0000029), wk =   0.0051813
        k(  174) = (   0.5421438   0.0049132   0.0031582), wk =   0.0051813
        k(  175) = (   0.5412175   0.0098265   0.0063135), wk =   0.0051813
        k(  176) = (   0.5402913   0.0147397   0.0094688), wk =   0.0051813
        k(  177) = (   0.5393651   0.0196529   0.0126241), wk =   0.0051813
        k(  178) = (   0.5384388   0.0245661   0.0157794), wk =   0.0051813
        k(  179) = (   0.5375126   0.0294794   0.0189347), wk =   0.0051813
        k(  180) = (   0.5365863   0.0343926   0.0220900), wk =   0.0051813
        k(  181) = (   0.5356601   0.0393058   0.0252453), wk =   0.0051813
        k(  182) = (   0.5347339   0.0442190   0.0284005), wk =   0.0051813
        k(  183) = (   0.5338076   0.0491323   0.0315558), wk =   0.0051813
        k(  184) = (   0.5328814   0.0540455   0.0347111), wk =   0.0051813
        k(  185) = (   0.5319552   0.0589587   0.0378664), wk =   0.0051813
        k(  186) = (   0.5310289   0.0638719   0.0410217), wk =   0.0051813
        k(  187) = (   0.5301027   0.0687852   0.0441770), wk =   0.0051813
        k(  188) = (   0.5291765   0.0736984   0.0473323), wk =   0.0051813
        k(  189) = (   0.5282502   0.0786116   0.0504876), wk =   0.0051813
        k(  190) = (   0.5273240   0.0835248   0.0536429), wk =   0.0051813
        k(  191) = (   0.5263977   0.0884381   0.0567982), wk =   0.0051813
        k(  192) = (   0.5254715   0.0933513   0.0599534), wk =   0.0051813
        k(  193) = (   0.5245453   0.0982645   0.0631087), wk =   0.0051813
        k(  194) = (   0.5236190   0.1031777   0.0662640), wk =   0.0051813
        k(  195) = (   0.5226928   0.1080910   0.0694193), wk =   0.0051813
        k(  196) = (   0.5217666   0.1130042   0.0725746), wk =   0.0051813
        k(  197) = (   0.5208403   0.1179174   0.0757299), wk =   0.0051813
        k(  198) = (   0.5199141   0.1228306   0.0788852), wk =   0.0051813
        k(  199) = (   0.5189878   0.1277439   0.0820405), wk =   0.0051813
        k(  200) = (   0.5180616   0.1326571   0.0851958), wk =   0.0051813
        k(  201) = (   0.5171354   0.1375703   0.0883511), wk =   0.0051813
        k(  202) = (   0.5162091   0.1424835   0.0915063), wk =   0.0051813
        k(  203) = (   0.5152829   0.1473968   0.0946616), wk =   0.0051813
        k(  204) = (   0.5143567   0.1523100   0.0978169), wk =   0.0051813
        k(  205) = (   0.5134304   0.1572232   0.1009722), wk =   0.0051813
        k(  206) = (   0.5125042   0.1621365   0.1041275), wk =   0.0051813
        k(  207) = (   0.5115780   0.1670497   0.1072828), wk =   0.0051813
        k(  208) = (   0.5106517   0.1719629   0.1104381), wk =   0.0051813
        k(  209) = (   0.5097255   0.1768761   0.1135934), wk =   0.0051813
        k(  210) = (   0.5087992   0.1817894   0.1167487), wk =   0.0051813
        k(  211) = (   0.5078730   0.1867026   0.1199040), wk =   0.0051813
        k(  212) = (   0.5069468   0.1916158   0.1230592), wk =   0.0051813
        k(  213) = (   0.5060205   0.1965290   0.1262145), wk =   0.0051813
        k(  214) = (   0.5050943   0.2014423   0.1293698), wk =   0.0051813
        k(  215) = (   0.5041681   0.2063555   0.1325251), wk =   0.0051813
        k(  216) = (   0.5032418   0.2112687   0.1356804), wk =   0.0051813
        k(  217) = (   0.5023156   0.2161819   0.1388357), wk =   0.0051813
        k(  218) = (   0.5013894   0.2210952   0.1419910), wk =   0.0051813
        k(  219) = (   0.5004631   0.2260084   0.1451463), wk =   0.0051813
        k(  220) = (   0.4995369   0.2309216   0.1483016), wk =   0.0051813
        k(  221) = (   0.4986106   0.2358348   0.1514569), wk =   0.0051813
        k(  222) = (   0.4976844   0.2407481   0.1546122), wk =   0.0051813
        k(  223) = (   0.4967582   0.2456613   0.1577674), wk =   0.0051813
        k(  224) = (   0.4958319   0.2505745   0.1609227), wk =   0.0051813
        k(  225) = (   0.4949057   0.2554877   0.1640780), wk =   0.0051813
        k(  226) = (   0.4939795   0.2604010   0.1672333), wk =   0.0051813
        k(  227) = (   0.4930532   0.2653142   0.1703886), wk =   0.0051813
        k(  228) = (   0.4921270   0.2702274   0.1735439), wk =   0.0051813
        k(  229) = (   0.4912008   0.2751406   0.1766992), wk =   0.0051813
        k(  230) = (   0.4902745   0.2800539   0.1798545), wk =   0.0051813
        k(  231) = (   0.4893483   0.2849671   0.1830098), wk =   0.0051813
        k(  232) = (   0.4884220   0.2898803   0.1861651), wk =   0.0051813
        k(  233) = (   0.4874958   0.2947935   0.1893203), wk =   0.0051813
        k(  234) = (   0.4865696   0.2997068   0.1924756), wk =   0.0051813
        k(  235) = (   0.4856433   0.3046200   0.1956309), wk =   0.0051813
        k(  236) = (   0.4847171   0.3095332   0.1987862), wk =   0.0051813
        k(  237) = (   0.4837909   0.3144465   0.2019415), wk =   0.0051813
        k(  238) = (   0.4828646   0.3193597   0.2050968), wk =   0.0051813
        k(  239) = (   0.4819384   0.3242729   0.2082521), wk =   0.0051813
        k(  240) = (   0.4810122   0.3291861   0.2114074), wk =   0.0051813
        k(  241) = (   0.4800859   0.3340994   0.2145627), wk =   0.0051813
        k(  242) = (   0.4791597   0.3390126   0.2177180), wk =   0.0051813
        k(  243) = (   0.4782334   0.3439258   0.2208732), wk =   0.0051813
        k(  244) = (   0.4773072   0.3488390   0.2240285), wk =   0.0051813
        k(  245) = (   0.4763810   0.3537523   0.2271838), wk =   0.0051813
        k(  246) = (   0.4754547   0.3586655   0.2303391), wk =   0.0051813
        k(  247) = (   0.4745285   0.3635787   0.2334944), wk =   0.0051813
        k(  248) = (   0.4736023   0.3684919   0.2366497), wk =   0.0051813
        k(  249) = (   0.4726760   0.3734052   0.2398050), wk =   0.0051813
        k(  250) = (   0.4717498   0.3783184   0.2429603), wk =   0.0051813
        k(  251) = (   0.4708235   0.3832316   0.2461156), wk =   0.0051813
        k(  252) = (   0.4698973   0.3881448   0.2492709), wk =   0.0051813
        k(  253) = (   0.4689711   0.3930581   0.2524261), wk =   0.0051813
        k(  254) = (   0.4680448   0.3979713   0.2555814), wk =   0.0051813
        k(  255) = (   0.4671186   0.4028845   0.2587367), wk =   0.0051813
        k(  256) = (   0.4661924   0.4077977   0.2618920), wk =   0.0051813
        k(  257) = (   0.4652661   0.4127110   0.2650473), wk =   0.0051813
        k(  258) = (   0.4643399   0.4176242   0.2682026), wk =   0.0051813
        k(  259) = (   0.4634137   0.4225374   0.2713579), wk =   0.0051813
        k(  260) = (   0.4624874   0.4274506   0.2745132), wk =   0.0051813
        k(  261) = (   0.4615612   0.4323639   0.2776685), wk =   0.0051813
        k(  262) = (   0.4606349   0.4372771   0.2808238), wk =   0.0051813
        k(  263) = (   0.4597087   0.4421903   0.2839790), wk =   0.0051813
        k(  264) = (   0.4587825   0.4471035   0.2871343), wk =   0.0051813
        k(  265) = (   0.4578562   0.4520168   0.2902896), wk =   0.0051813
        k(  266) = (   0.4569300   0.4569300   0.2934449), wk =   0.0051813
        k(  267) = (   0.4531223   0.4531223   0.2909995), wk =   0.0051813
        k(  268) = (   0.4493145   0.4493145   0.2885542), wk =   0.0051813
        k(  269) = (   0.4455068   0.4455068   0.2861088), wk =   0.0051813
        k(  270) = (   0.4416990   0.4416990   0.2836634), wk =   0.0051813
        k(  271) = (   0.4378913   0.4378913   0.2812180), wk =   0.0051813
        k(  272) = (   0.4340835   0.4340835   0.2787727), wk =   0.0051813
        k(  273) = (   0.4302758   0.4302758   0.2763273), wk =   0.0051813
        k(  274) = (   0.4264680   0.4264680   0.2738819), wk =   0.0051813
        k(  275) = (   0.4226603   0.4226603   0.2714365), wk =   0.0051813
        k(  276) = (   0.4188525   0.4188525   0.2689912), wk =   0.0051813
        k(  277) = (   0.4150448   0.4150448   0.2665458), wk =   0.0051813
        k(  278) = (   0.4112370   0.4112370   0.2641004), wk =   0.0051813
        k(  279) = (   0.4074293   0.4074293   0.2616550), wk =   0.0051813
        k(  280) = (   0.4036215   0.4036215   0.2592097), wk =   0.0051813
        k(  281) = (   0.3998138   0.3998138   0.2567643), wk =   0.0051813
        k(  282) = (   0.3960060   0.3960060   0.2543189), wk =   0.0051813
        k(  283) = (   0.3921982   0.3921982   0.2518736), wk =   0.0051813
        k(  284) = (   0.3883905   0.3883905   0.2494282), wk =   0.0051813
        k(  285) = (   0.3845827   0.3845827   0.2469828), wk =   0.0051813
        k(  286) = (   0.3807750   0.3807750   0.2445374), wk =   0.0051813
        k(  287) = (   0.3769672   0.3769672   0.2420921), wk =   0.0051813
        k(  288) = (   0.3731595   0.3731595   0.2396467), wk =   0.0051813
        k(  289) = (   0.3693517   0.3693517   0.2372013), wk =   0.0051813
        k(  290) = (   0.3655440   0.3655440   0.2347559), wk =   0.0051813
        k(  291) = (   0.3617362   0.3617362   0.2323106), wk =   0.0051813
        k(  292) = (   0.3579285   0.3579285   0.2298652), wk =   0.0051813
        k(  293) = (   0.3541207   0.3541207   0.2274198), wk =   0.0051813
        k(  294) = (   0.3503130   0.3503130   0.2249744), wk =   0.0051813
        k(  295) = (   0.3465052   0.3465052   0.2225291), wk =   0.0051813
        k(  296) = (   0.3426975   0.3426975   0.2200837), wk =   0.0051813
        k(  297) = (   0.3388897   0.3388897   0.2176383), wk =   0.0051813
        k(  298) = (   0.3350820   0.3350820   0.2151929), wk =   0.0051813
        k(  299) = (   0.3312742   0.3312742   0.2127476), wk =   0.0051813
        k(  300) = (   0.3274665   0.3274665   0.2103022), wk =   0.0051813
        k(  301) = (   0.3236587   0.3236587   0.2078568), wk =   0.0051813
        k(  302) = (   0.3198510   0.3198510   0.2054114), wk =   0.0051813
        k(  303) = (   0.3160432   0.3160432   0.2029661), wk =   0.0051813
        k(  304) = (   0.3122355   0.3122355   0.2005207), wk =   0.0051813
        k(  305) = (   0.3084278   0.3084278   0.1980753), wk =   0.0051813
        k(  306) = (   0.3046200   0.3046200   0.1956299), wk =   0.0051813
        k(  307) = (   0.3008123   0.3008123   0.1931846), wk =   0.0051813
        k(  308) = (   0.2970045   0.2970045   0.1907392), wk =   0.0051813
        k(  309) = (   0.2931968   0.2931968   0.1882938), wk =   0.0051813
        k(  310) = (   0.2893890   0.2893890   0.1858484), wk =   0.0051813
        k(  311) = (   0.2855813   0.2855813   0.1834031), wk =   0.0051813
        k(  312) = (   0.2817735   0.2817735   0.1809577), wk =   0.0051813
        k(  313) = (   0.2779658   0.2779658   0.1785123), wk =   0.0051813
        k(  314) = (   0.2741580   0.2741580   0.1760669), wk =   0.0051813
        k(  315) = (   0.2703503   0.2703503   0.1736216), wk =   0.0051813
        k(  316) = (   0.2665425   0.2665425   0.1711762), wk =   0.0051813
        k(  317) = (   0.2627348   0.2627348   0.1687308), wk =   0.0051813
        k(  318) = (   0.2589270   0.2589270   0.1662855), wk =   0.0051813
        k(  319) = (   0.2551193   0.2551193   0.1638401), wk =   0.0051813
        k(  320) = (   0.2513115   0.2513115   0.1613947), wk =   0.0051813
        k(  321) = (   0.2475038   0.2475038   0.1589493), wk =   0.0051813
        k(  322) = (   0.2436960   0.2436960   0.1565040), wk =   0.0051813
        k(  323) = (   0.2398883   0.2398883   0.1540586), wk =   0.0051813
        k(  324) = (   0.2360805   0.2360805   0.1516132), wk =   0.0051813
        k(  325) = (   0.2322728   0.2322728   0.1491678), wk =   0.0051813
        k(  326) = (   0.2284650   0.2284650   0.1467225), wk =   0.0051813
        k(  327) = (   0.2246573   0.2246573   0.1442771), wk =   0.0051813
        k(  328) = (   0.2208495   0.2208495   0.1418317), wk =   0.0051813
        k(  329) = (   0.2170417   0.2170417   0.1393863), wk =   0.0051813
        k(  330) = (   0.2132340   0.2132340   0.1369410), wk =   0.0051813
        k(  331) = (   0.2094263   0.2094263   0.1344956), wk =   0.0051813
        k(  332) = (   0.2056185   0.2056185   0.1320502), wk =   0.0051813
        k(  333) = (   0.2018107   0.2018107   0.1296048), wk =   0.0051813
        k(  334) = (   0.1980030   0.1980030   0.1271595), wk =   0.0051813
        k(  335) = (   0.1941953   0.1941953   0.1247141), wk =   0.0051813
        k(  336) = (   0.1903875   0.1903875   0.1222687), wk =   0.0051813
        k(  337) = (   0.1865797   0.1865797   0.1198233), wk =   0.0051813
        k(  338) = (   0.1827720   0.1827720   0.1173780), wk =   0.0051813
        k(  339) = (   0.1789643   0.1789643   0.1149326), wk =   0.0051813
        k(  340) = (   0.1751565   0.1751565   0.1124872), wk =   0.0051813
        k(  341) = (   0.1713487   0.1713487   0.1100418), wk =   0.0051813
        k(  342) = (   0.1675410   0.1675410   0.1075965), wk =   0.0051813
        k(  343) = (   0.1637333   0.1637333   0.1051511), wk =   0.0051813
        k(  344) = (   0.1599255   0.1599255   0.1027057), wk =   0.0051813
        k(  345) = (   0.1561177   0.1561177   0.1002603), wk =   0.0051813
        k(  346) = (   0.1523100   0.1523100   0.0978150), wk =   0.0051813
        k(  347) = (   0.1485023   0.1485023   0.0953696), wk =   0.0051813
        k(  348) = (   0.1446945   0.1446945   0.0929242), wk =   0.0051813
        k(  349) = (   0.1408868   0.1408868   0.0904788), wk =   0.0051813
        k(  350) = (   0.1370790   0.1370790   0.0880335), wk =   0.0051813
        k(  351) = (   0.1332713   0.1332713   0.0855881), wk =   0.0051813
        k(  352) = (   0.1294635   0.1294635   0.0831427), wk =   0.0051813
        k(  353) = (   0.1256558   0.1256558   0.0806974), wk =   0.0051813
        k(  354) = (   0.1218480   0.1218480   0.0782520), wk =   0.0051813
        k(  355) = (   0.1180403   0.1180403   0.0758066), wk =   0.0051813
        k(  356) = (   0.1142325   0.1142325   0.0733612), wk =   0.0051813
        k(  357) = (   0.1104248   0.1104248   0.0709159), wk =   0.0051813
        k(  358) = (   0.1066170   0.1066170   0.0684705), wk =   0.0051813
        k(  359) = (   0.1028092   0.1028092   0.0660251), wk =   0.0051813
        k(  360) = (   0.0990015   0.0990015   0.0635797), wk =   0.0051813
        k(  361) = (   0.0951938   0.0951938   0.0611344), wk =   0.0051813
        k(  362) = (   0.0913860   0.0913860   0.0586890), wk =   0.0051813
        k(  363) = (   0.0875782   0.0875782   0.0562436), wk =   0.0051813
        k(  364) = (   0.0837705   0.0837705   0.0537982), wk =   0.0051813
        k(  365) = (   0.0799628   0.0799628   0.0513529), wk =   0.0051813
        k(  366) = (   0.0761550   0.0761550   0.0489075), wk =   0.0051813
        k(  367) = (   0.0723472   0.0723472   0.0464621), wk =   0.0051813
        k(  368) = (   0.0685395   0.0685395   0.0440167), wk =   0.0051813
        k(  369) = (   0.0647318   0.0647318   0.0415714), wk =   0.0051813
        k(  370) = (   0.0609240   0.0609240   0.0391260), wk =   0.0051813
        k(  371) = (   0.0571162   0.0571162   0.0366806), wk =   0.0051813
        k(  372) = (   0.0533085   0.0533085   0.0342352), wk =   0.0051813
        k(  373) = (   0.0495008   0.0495008   0.0317899), wk =   0.0051813
        k(  374) = (   0.0456930   0.0456930   0.0293445), wk =   0.0051813
        k(  375) = (   0.0418852   0.0418852   0.0268991), wk =   0.0051813
        k(  376) = (   0.0380775   0.0380775   0.0244537), wk =   0.0051813
        k(  377) = (   0.0342698   0.0342698   0.0220084), wk =   0.0051813
        k(  378) = (   0.0304620   0.0304620   0.0195630), wk =   0.0051813
        k(  379) = (   0.0266542   0.0266542   0.0171176), wk =   0.0051813
        k(  380) = (   0.0228465   0.0228465   0.0146722), wk =   0.0051813
        k(  381) = (   0.0190387   0.0190387   0.0122269), wk =   0.0051813
        k(  382) = (   0.0152310   0.0152310   0.0097815), wk =   0.0051813
        k(  383) = (   0.0114232   0.0114232   0.0073361), wk =   0.0051813
        k(  384) = (   0.0076155   0.0076155   0.0048907), wk =   0.0051813
        k(  385) = (   0.0038077   0.0038077   0.0024454), wk =   0.0051813
        k(  386) = (   0.0000000   0.0000000   0.0000000), wk =   0.0051813

                       cryst. coord.
        k(    1) = (   0.0000000   0.0000000   0.0000000), wk =   0.0051813
        k(    2) = (   0.0000000   0.0000000   0.0111111), wk =   0.0051813
        k(    3) = (   0.0000000   0.0000000   0.0222222), wk =   0.0051813
        k(    4) = (   0.0000000   0.0000000   0.0333333), wk =   0.0051813
        k(    5) = (   0.0000000   0.0000000   0.0444444), wk =   0.0051813
        k(    6) = (   0.0000000   0.0000000   0.0555556), wk =   0.0051813
        k(    7) = (   0.0000000   0.0000000   0.0666667), wk =   0.0051813
        k(    8) = (   0.0000000   0.0000000   0.0777778), wk =   0.0051813
        k(    9) = (   0.0000000   0.0000000   0.0888889), wk =   0.0051813
        k(   10) = (   0.0000000   0.0000000   0.1000000), wk =   0.0051813
        k(   11) = (   0.0000000   0.0000000   0.1111111), wk =   0.0051813
        k(   12) = (   0.0000000   0.0000000   0.1222222), wk =   0.0051813
        k(   13) = (   0.0000000   0.0000000   0.1333333), wk =   0.0051813
        k(   14) = (   0.0000000   0.0000000   0.1444444), wk =   0.0051813
        k(   15) = (   0.0000000   0.0000000   0.1555556), wk =   0.0051813
        k(   16) = (   0.0000000   0.0000000   0.1666667), wk =   0.0051813
        k(   17) = (   0.0000000   0.0000000   0.1777778), wk =   0.0051813
        k(   18) = (   0.0000000   0.0000000   0.1888889), wk =   0.0051813
        k(   19) = (   0.0000000   0.0000000   0.2000000), wk =   0.0051813
        k(   20) = (   0.0000000   0.0000000   0.2111111), wk =   0.0051813
        k(   21) = (   0.0000000   0.0000000   0.2222222), wk =   0.0051813
        k(   22) = (   0.0000000   0.0000000   0.2333333), wk =   0.0051813
        k(   23) = (   0.0000000   0.0000000   0.2444444), wk =   0.0051813
        k(   24) = (   0.0000000   0.0000000   0.2555556), wk =   0.0051813
        k(   25) = (   0.0000000   0.0000000   0.2666667), wk =   0.0051813
        k(   26) = (   0.0000000   0.0000000   0.2777778), wk =   0.0051813
        k(   27) = (   0.0000000   0.0000000   0.2888889), wk =   0.0051813
        k(   28) = (   0.0000000   0.0000000   0.3000000), wk =   0.0051813
        k(   29) = (   0.0000000   0.0000000   0.3111111), wk =   0.0051813
        k(   30) = (   0.0000000   0.0000000   0.3222222), wk =   0.0051813
        k(   31) = (   0.0000000   0.0000000   0.3333333), wk =   0.0051813
        k(   32) = (   0.0000000   0.0000000   0.3444444), wk =   0.0051813
        k(   33) = (   0.0000000   0.0000000   0.3555556), wk =   0.0051813
        k(   34) = (   0.0000000   0.0000000   0.3666667), wk =   0.0051813
        k(   35) = (   0.0000000   0.0000000   0.3777778), wk =   0.0051813
        k(   36) = (   0.0000000   0.0000000   0.3888889), wk =   0.0051813
        k(   37) = (   0.0000000   0.0000000   0.4000000), wk =   0.0051813
        k(   38) = (   0.0000000   0.0000000   0.4111111), wk =   0.0051813
        k(   39) = (   0.0000000   0.0000000   0.4222222), wk =   0.0051813
        k(   40) = (   0.0000000   0.0000000   0.4333333), wk =   0.0051813
        k(   41) = (   0.0000000   0.0000000   0.4444444), wk =   0.0051813
        k(   42) = (   0.0000000   0.0000000   0.4555556), wk =   0.0051813
        k(   43) = (   0.0000000   0.0000000   0.4666667), wk =   0.0051813
        k(   44) = (   0.0000000   0.0000000   0.4777778), wk =   0.0051813
        k(   45) = (   0.0000000   0.0000000   0.4888889), wk =   0.0051813
        k(   46) = (   0.0000000   0.0000000   0.5000000), wk =   0.0051813
        k(   47) = (   0.0060924   0.0000000   0.4969537), wk =   0.0051813
        k(   48) = (   0.0121848   0.0000000   0.4939075), wk =   0.0051813
        k(   49) = (   0.0182772   0.0000000   0.4908612), wk =   0.0051813
        k(   50) = (   0.0243696   0.0000000   0.4878149), wk =   0.0051813
        k(   51) = (   0.0304620   0.0000000   0.4847687), wk =   0.0051813
        k(   52) = (   0.0365544   0.0000000   0.4817224), wk =   0.0051813
        k(   53) = (   0.0426468   0.0000000   0.4786761), wk =   0.0051813
        k(   54) = (   0.0487392   0.0000000   0.4756299), wk =   0.0051813
        k(   55) = (   0.0548316   0.0000000   0.4725836), wk =   0.0051813
        k(   56) = (   0.0609240   0.0000000   0.4695373), wk =   0.0051813
        k(   57) = (   0.0670164   0.0000000   0.4664911), wk =   0.0051813
        k(   58) = (   0.0731088   0.0000000   0.4634448), wk =   0.0051813
        k(   59) = (   0.0792012   0.0000000   0.4603985), wk =   0.0051813
        k(   60) = (   0.0852936   0.0000000   0.4573523), wk =   0.0051813
        k(   61) = (   0.0913860   0.0000000   0.4543060), wk =   0.0051813
        k(   62) = (   0.0974784   0.0000000   0.4512597), wk =   0.0051813
        k(   63) = (   0.1035708   0.0000000   0.4482135), wk =   0.0051813
        k(   64) = (   0.1096632   0.0000000   0.4451672), wk =   0.0051813
        k(   65) = (   0.1157556   0.0000000   0.4421209), wk =   0.0051813
        k(   66) = (   0.1218480   0.0000000   0.4390747), wk =   0.0051813
        k(   67) = (   0.1279404   0.0000000   0.4360284), wk =   0.0051813
        k(   68) = (   0.1340328   0.0000000   0.4329821), wk =   0.0051813
        k(   69) = (   0.1401252   0.0000000   0.4299359), wk =   0.0051813
        k(   70) = (   0.1462176   0.0000000   0.4268896), wk =   0.0051813
        k(   71) = (   0.1523100   0.0000000   0.4238433), wk =   0.0051813
        k(   72) = (   0.1584024   0.0000000   0.4207971), wk =   0.0051813
        k(   73) = (   0.1644948   0.0000000   0.4177508), wk =   0.0051813
        k(   74) = (   0.1705872   0.0000000   0.4147045), wk =   0.0051813
        k(   75) = (   0.1766796   0.0000000   0.4116583), wk =   0.0051813
        k(   76) = (   0.1827720   0.0000000   0.4086120), wk =   0.0051813
        k(   77) = (   0.1888644   0.0000000   0.4055657), wk =   0.0051813
        k(   78) = (   0.1949568   0.0000000   0.4025195), wk =   0.0051813
        k(   79) = (   0.2010492   0.0000000   0.3994732), wk =   0.0051813
        k(   80) = (   0.2071416   0.0000000   0.3964269), wk =   0.0051813
        k(   81) = (   0.2132340   0.0000000   0.3933807), wk =   0.0051813
        k(   82) = (   0.2193264   0.0000000   0.3903344), wk =   0.0051813
        k(   83) = (   0.2254188   0.0000000   0.3872881), wk =   0.0051813
        k(   84) = (   0.2315112   0.0000000   0.3842419), wk =   0.0051813
        k(   85) = (   0.2376036   0.0000000   0.3811956), wk =   0.0051813
        k(   86) = (   0.2436960   0.0000000   0.3781493), wk =   0.0051813
        k(   87) = (   0.2497884   0.0000000   0.3751031), wk =   0.0051813
        k(   88) = (   0.2558808   0.0000000   0.3720568), wk =   0.0051813
        k(   89) = (   0.2619732   0.0000000   0.3690105), wk =   0.0051813
        k(   90) = (   0.2680656   0.0000000   0.3659643), wk =   0.0051813
        k(   91) = (   0.2741580   0.0000000   0.3629180), wk =   0.0051813
        k(   92) = (   0.2802504   0.0000000   0.3598717), wk =   0.0051813
        k(   93) = (   0.2863428   0.0000000   0.3568255), wk =   0.0051813
        k(   94) = (   0.2924352   0.0000000   0.3537792), wk =   0.0051813
        k(   95) = (   0.2985276   0.0000000   0.3507329), wk =   0.0051813
        k(   96) = (   0.3046200   0.0000000   0.3476867), wk =   0.0051813
        k(   97) = (   0.3107124   0.0000000   0.3446404), wk =   0.0051813
        k(   98) = (   0.3168048   0.0000000   0.3415941), wk =   0.0051813
        k(   99) = (   0.3228972   0.0000000   0.3385479), wk =   0.0051813
        k(  100) = (   0.3289896   0.0000000   0.3355016), wk =   0.0051813
        k(  101) = (   0.3350820   0.0000000   0.3324553), wk =   0.0051813
        k(  102) = (   0.3411744   0.0000000   0.3294091), wk =   0.0051813
        k(  103) = (   0.3472668   0.0000000   0.3263628), wk =   0.0051813
        k(  104) = (   0.3533592   0.0000000   0.3233165), wk =   0.0051813
        k(  105) = (   0.3594516   0.0000000   0.3202703), wk =   0.0051813
        k(  106) = (   0.3655440   0.0000000   0.3172240), wk =   0.0051813
        k(  107) = (   0.3716364   0.0000000   0.3141777), wk =   0.0051813
        k(  108) = (   0.3777288   0.0000000   0.3111315), wk =   0.0051813
        k(  109) = (   0.3838212   0.0000000   0.3080852), wk =   0.0051813
        k(  110) = (   0.3899136   0.0000000   0.3050389), wk =   0.0051813
        k(  111) = (   0.3960060   0.0000000   0.3019927), wk =   0.0051813
        k(  112) = (   0.4020984   0.0000000   0.2989464), wk =   0.0051813
        k(  113) = (   0.4081908   0.0000000   0.2959001), wk =   0.0051813
        k(  114) = (   0.4142832   0.0000000   0.2928539), wk =   0.0051813
        k(  115) = (   0.4203756   0.0000000   0.2898076), wk =   0.0051813
        k(  116) = (   0.4264680   0.0000000   0.2867613), wk =   0.0051813
        k(  117) = (   0.4325604   0.0000000   0.2837151), wk =   0.0051813
        k(  118) = (   0.4386528   0.0000000   0.2806688), wk =   0.0051813
        k(  119) = (   0.4447452   0.0000000   0.2776225), wk =   0.0051813
        k(  120) = (   0.4508376   0.0000000   0.2745763), wk =   0.0051813
        k(  121) = (   0.4569300   0.0000000   0.2715300), wk =   0.0051813
        k(  122) = (   0.4585865   0.0000000   0.2610865), wk =   0.0051813
        k(  123) = (   0.4602431   0.0000000   0.2506431), wk =   0.0051813
        k(  124) = (   0.4618996   0.0000000   0.2401996), wk =   0.0051813
        k(  125) = (   0.4635562   0.0000000   0.2297562), wk =   0.0051813
        k(  126) = (   0.4652127   0.0000000   0.2193127), wk =   0.0051813
        k(  127) = (   0.4668692   0.0000000   0.2088692), wk =   0.0051813
        k(  128) = (   0.4685258   0.0000000   0.1984258), wk =   0.0051813
        k(  129) = (   0.4701823   0.0000000   0.1879823), wk =   0.0051813
        k(  130) = (   0.4718388   0.0000000   0.1775388), wk =   0.0051813
        k(  131) = (   0.4734954   0.0000000   0.1670954), wk =   0.0051813
        k(  132) = (   0.4751519   0.0000000   0.1566519), wk =   0.0051813
        k(  133) = (   0.4768085   0.0000000   0.1462085), wk =   0.0051813
        k(  134) = (   0.4784650   0.0000000   0.1357650), wk =   0.0051813
        k(  135) = (   0.4801215   0.0000000   0.1253215), wk =   0.0051813
        k(  136) = (   0.4817781   0.0000000   0.1148781), wk =   0.0051813
        k(  137) = (   0.4834346   0.0000000   0.1044346), wk =   0.0051813
        k(  138) = (   0.4850912   0.0000000   0.0939912), wk =   0.0051813
        k(  139) = (   0.4867477   0.0000000   0.0835477), wk =   0.0051813
        k(  140) = (   0.4884042   0.0000000   0.0731042), wk =   0.0051813
        k(  141) = (   0.4900608   0.0000000   0.0626608), wk =   0.0051813
        k(  142) = (   0.4917173   0.0000000   0.0522173), wk =   0.0051813
        k(  143) = (   0.4933738   0.0000000   0.0417738), wk =   0.0051813
        k(  144) = (   0.4950304   0.0000000   0.0313304), wk =   0.0051813
        k(  145) = (   0.4966869   0.0000000   0.0208869), wk =   0.0051813
        k(  146) = (   0.4983435   0.0000000   0.0104435), wk =   0.0051813
        k(  147) = (   0.5000000   0.0000000   0.0000000), wk =   0.0051813
        k(  148) = (   0.5016565   0.0000000  -0.0104435), wk =   0.0051813
        k(  149) = (   0.5033131   0.0000000  -0.0208869), wk =   0.0051813
        k(  150) = (   0.5049696   0.0000000  -0.0313304), wk =   0.0051813
        k(  151) = (   0.5066262   0.0000000  -0.0417738), wk =   0.0051813
        k(  152) = (   0.5082827   0.0000000  -0.0522173), wk =   0.0051813
        k(  153) = (   0.5099392   0.0000000  -0.0626608), wk =   0.0051813
        k(  154) = (   0.5115958   0.0000000  -0.0731042), wk =   0.0051813
        k(  155) = (   0.5132523   0.0000000  -0.0835477), wk =   0.0051813
        k(  156) = (   0.5149088   0.0000000  -0.0939912), wk =   0.0051813
        k(  157) = (   0.5165654   0.0000000  -0.1044346), wk =   0.0051813
        k(  158) = (   0.5182219   0.0000000  -0.1148781), wk =   0.0051813
        k(  159) = (   0.5198785   0.0000000  -0.1253215), wk =   0.0051813
        k(  160) = (   0.5215350   0.0000000  -0.1357650), wk =   0.0051813
        k(  161) = (   0.5231915   0.0000000  -0.1462085), wk =   0.0051813
        k(  162) = (   0.5248481   0.0000000  -0.1566519), wk =   0.0051813
        k(  163) = (   0.5265046   0.0000000  -0.1670954), wk =   0.0051813
        k(  164) = (   0.5281612   0.0000000  -0.1775388), wk =   0.0051813
        k(  165) = (   0.5298177   0.0000000  -0.1879823), wk =   0.0051813
        k(  166) = (   0.5314742   0.0000000  -0.1984258), wk =   0.0051813
        k(  167) = (   0.5331308   0.0000000  -0.2088692), wk =   0.0051813
        k(  168) = (   0.5347873   0.0000000  -0.2193127), wk =   0.0051813
        k(  169) = (   0.5364438   0.0000000  -0.2297562), wk =   0.0051813
        k(  170) = (   0.5381004   0.0000000  -0.2401996), wk =   0.0051813
        k(  171) = (   0.5397569   0.0000000  -0.2506431), wk =   0.0051813
        k(  172) = (   0.5414135   0.0000000  -0.2610865), wk =   0.0051813
        k(  173) = (   0.5430700   0.0000000  -0.2715300), wk =   0.0051813
        k(  174) = (   0.5421438   0.0049132  -0.2681480), wk =   0.0051813
        k(  175) = (   0.5412175   0.0098265  -0.2647659), wk =   0.0051813
        k(  176) = (   0.5402913   0.0147397  -0.2613839), wk =   0.0051813
        k(  177) = (   0.5393651   0.0196529  -0.2580018), wk =   0.0051813
        k(  178) = (   0.5384388   0.0245661  -0.2546198), wk =   0.0051813
        k(  179) = (   0.5375126   0.0294794  -0.2512377), wk =   0.0051813
        k(  180) = (   0.5365863   0.0343926  -0.2478557), wk =   0.0051813
        k(  181) = (   0.5356601   0.0393058  -0.2444737), wk =   0.0051813
        k(  182) = (   0.5347339   0.0442190  -0.2410916), wk =   0.0051813
        k(  183) = (   0.5338076   0.0491323  -0.2377096), wk =   0.0051813
        k(  184) = (   0.5328814   0.0540455  -0.2343275), wk =   0.0051813
        k(  185) = (   0.5319552   0.0589587  -0.2309455), wk =   0.0051813
        k(  186) = (   0.5310289   0.0638719  -0.2275634), wk =   0.0051813
        k(  187) = (   0.5301027   0.0687852  -0.2241814), wk =   0.0051813
        k(  188) = (   0.5291765   0.0736984  -0.2207994), wk =   0.0051813
        k(  189) = (   0.5282502   0.0786116  -0.2174173), wk =   0.0051813
        k(  190) = (   0.5273240   0.0835248  -0.2140353), wk =   0.0051813
        k(  191) = (   0.5263977   0.0884381  -0.2106532), wk =   0.0051813
        k(  192) = (   0.5254715   0.0933513  -0.2072712), wk =   0.0051813
        k(  193) = (   0.5245453   0.0982645  -0.2038891), wk =   0.0051813
        k(  194) = (   0.5236190   0.1031777  -0.2005071), wk =   0.0051813
        k(  195) = (   0.5226928   0.1080910  -0.1971251), wk =   0.0051813
        k(  196) = (   0.5217666   0.1130042  -0.1937430), wk =   0.0051813
        k(  197) = (   0.5208403   0.1179174  -0.1903610), wk =   0.0051813
        k(  198) = (   0.5199141   0.1228306  -0.1869789), wk =   0.0051813
        k(  199) = (   0.5189878   0.1277439  -0.1835969), wk =   0.0051813
        k(  200) = (   0.5180616   0.1326571  -0.1802148), wk =   0.0051813
        k(  201) = (   0.5171354   0.1375703  -0.1768328), wk =   0.0051813
        k(  202) = (   0.5162091   0.1424835  -0.1734508), wk =   0.0051813
        k(  203) = (   0.5152829   0.1473968  -0.1700687), wk =   0.0051813
        k(  204) = (   0.5143567   0.1523100  -0.1666867), wk =   0.0051813
        k(  205) = (   0.5134304   0.1572232  -0.1633046), wk =   0.0051813
        k(  206) = (   0.5125042   0.1621365  -0.1599226), wk =   0.0051813
        k(  207) = (   0.5115780   0.1670497  -0.1565405), wk =   0.0051813
        k(  208) = (   0.5106517   0.1719629  -0.1531585), wk =   0.0051813
        k(  209) = (   0.5097255   0.1768761  -0.1497765), wk =   0.0051813
        k(  210) = (   0.5087992   0.1817894  -0.1463944), wk =   0.0051813
        k(  211) = (   0.5078730   0.1867026  -0.1430124), wk =   0.0051813
        k(  212) = (   0.5069468   0.1916158  -0.1396303), wk =   0.0051813
        k(  213) = (   0.5060205   0.1965290  -0.1362483), wk =   0.0051813
        k(  214) = (   0.5050943   0.2014423  -0.1328662), wk =   0.0051813
        k(  215) = (   0.5041681   0.2063555  -0.1294842), wk =   0.0051813
        k(  216) = (   0.5032418   0.2112687  -0.1261022), wk =   0.0051813
        k(  217) = (   0.5023156   0.2161819  -0.1227201), wk =   0.0051813
        k(  218) = (   0.5013894   0.2210952  -0.1193381), wk =   0.0051813
        k(  219) = (   0.5004631   0.2260084  -0.1159560), wk =   0.0051813
        k(  220) = (   0.4995369   0.2309216  -0.1125740), wk =   0.0051813
        k(  221) = (   0.4986106   0.2358348  -0.1091919), wk =   0.0051813
        k(  222) = (   0.4976844   0.2407481  -0.1058099), wk =   0.0051813
        k(  223) = (   0.4967582   0.2456613  -0.1024278), wk =   0.0051813
        k(  224) = (   0.4958319   0.2505745  -0.0990458), wk =   0.0051813
        k(  225) = (   0.4949057   0.2554877  -0.0956638), wk =   0.0051813
        k(  226) = (   0.4939795   0.2604010  -0.0922817), wk =   0.0051813
        k(  227) = (   0.4930532   0.2653142  -0.0888997), wk =   0.0051813
        k(  228) = (   0.4921270   0.2702274  -0.0855176), wk =   0.0051813
        k(  229) = (   0.4912008   0.2751406  -0.0821356), wk =   0.0051813
        k(  230) = (   0.4902745   0.2800539  -0.0787535), wk =   0.0051813
        k(  231) = (   0.4893483   0.2849671  -0.0753715), wk =   0.0051813
        k(  232) = (   0.4884220   0.2898803  -0.0719895), wk =   0.0051813
        k(  233) = (   0.4874958   0.2947935  -0.0686074), wk =   0.0051813
        k(  234) = (   0.4865696   0.2997068  -0.0652254), wk =   0.0051813
        k(  235) = (   0.4856433   0.3046200  -0.0618433), wk =   0.0051813
        k(  236) = (   0.4847171   0.3095332  -0.0584613), wk =   0.0051813
        k(  237) = (   0.4837909   0.3144465  -0.0550792), wk =   0.0051813
        k(  238) = (   0.4828646   0.3193597  -0.0516972), wk =   0.0051813
        k(  239) = (   0.4819384   0.3242729  -0.0483152), wk =   0.0051813
        k(  240) = (   0.4810122   0.3291861  -0.0449331), wk =   0.0051813
        k(  241) = (   0.4800859   0.3340994  -0.0415511), wk =   0.0051813
        k(  242) = (   0.4791597   0.3390126  -0.0381690), wk =   0.0051813
        k(  243) = (   0.4782334   0.3439258  -0.0347870), wk =   0.0051813
        k(  244) = (   0.4773072   0.3488390  -0.0314049), wk =   0.0051813
        k(  245) = (   0.4763810   0.3537523  -0.0280229), wk =   0.0051813
        k(  246) = (   0.4754547   0.3586655  -0.0246409), wk =   0.0051813
        k(  247) = (   0.4745285   0.3635787  -0.0212588), wk =   0.0051813
        k(  248) = (   0.4736023   0.3684919  -0.0178768), wk =   0.0051813
        k(  249) = (   0.4726760   0.3734052  -0.0144947), wk =   0.0051813
        k(  250) = (   0.4717498   0.3783184  -0.0111127), wk =   0.0051813
        k(  251) = (   0.4708235   0.3832316  -0.0077306), wk =   0.0051813
        k(  252) = (   0.4698973   0.3881448  -0.0043486), wk =   0.0051813
        k(  253) = (   0.4689711   0.3930581  -0.0009666), wk =   0.0051813
        k(  254) = (   0.4680448   0.3979713   0.0024155), wk =   0.0051813
        k(  255) = (   0.4671186   0.4028845   0.0057975), wk =   0.0051813
        k(  256) = (   0.4661924   0.4077977   0.0091796), wk =   0.0051813
        k(  257) = (   0.4652661   0.4127110   0.0125616), wk =   0.0051813
        k(  258) = (   0.4643399   0.4176242   0.0159437), wk =   0.0051813
        k(  259) = (   0.4634137   0.4225374   0.0193257), wk =   0.0051813
        k(  260) = (   0.4624874   0.4274506   0.0227077), wk =   0.0051813
        k(  261) = (   0.4615612   0.4323639   0.0260898), wk =   0.0051813
        k(  262) = (   0.4606349   0.4372771   0.0294718), wk =   0.0051813
        k(  263) = (   0.4597087   0.4421903   0.0328539), wk =   0.0051813
        k(  264) = (   0.4587825   0.4471035   0.0362359), wk =   0.0051813
        k(  265) = (   0.4578562   0.4520168   0.0396180), wk =   0.0051813
        k(  266) = (   0.4569300   0.4569300   0.0430000), wk =   0.0051813
        k(  267) = (   0.4531223   0.4531223   0.0426417), wk =   0.0051813
        k(  268) = (   0.4493145   0.4493145   0.0422833), wk =   0.0051813
        k(  269) = (   0.4455068   0.4455068   0.0419250), wk =   0.0051813
        k(  270) = (   0.4416990   0.4416990   0.0415667), wk =   0.0051813
        k(  271) = (   0.4378913   0.4378913   0.0412083), wk =   0.0051813
        k(  272) = (   0.4340835   0.4340835   0.0408500), wk =   0.0051813
        k(  273) = (   0.4302758   0.4302758   0.0404917), wk =   0.0051813
        k(  274) = (   0.4264680   0.4264680   0.0401333), wk =   0.0051813
        k(  275) = (   0.4226603   0.4226603   0.0397750), wk =   0.0051813
        k(  276) = (   0.4188525   0.4188525   0.0394167), wk =   0.0051813
        k(  277) = (   0.4150448   0.4150448   0.0390583), wk =   0.0051813
        k(  278) = (   0.4112370   0.4112370   0.0387000), wk =   0.0051813
        k(  279) = (   0.4074293   0.4074293   0.0383417), wk =   0.0051813
        k(  280) = (   0.4036215   0.4036215   0.0379833), wk =   0.0051813
        k(  281) = (   0.3998138   0.3998138   0.0376250), wk =   0.0051813
        k(  282) = (   0.3960060   0.3960060   0.0372667), wk =   0.0051813
        k(  283) = (   0.3921982   0.3921982   0.0369083), wk =   0.0051813
        k(  284) = (   0.3883905   0.3883905   0.0365500), wk =   0.0051813
        k(  285) = (   0.3845827   0.3845827   0.0361917), wk =   0.0051813
        k(  286) = (   0.3807750   0.3807750   0.0358333), wk =   0.0051813
        k(  287) = (   0.3769672   0.3769672   0.0354750), wk =   0.0051813
        k(  288) = (   0.3731595   0.3731595   0.0351167), wk =   0.0051813
        k(  289) = (   0.3693517   0.3693517   0.0347583), wk =   0.0051813
        k(  290) = (   0.3655440   0.3655440   0.0344000), wk =   0.0051813
        k(  291) = (   0.3617362   0.3617362   0.0340417), wk =   0.0051813
        k(  292) = (   0.3579285   0.3579285   0.0336833), wk =   0.0051813
        k(  293) = (   0.3541207   0.3541207   0.0333250), wk =   0.0051813
        k(  294) = (   0.3503130   0.3503130   0.0329667), wk =   0.0051813
        k(  295) = (   0.3465052   0.3465052   0.0326083), wk =   0.0051813
        k(  296) = (   0.3426975   0.3426975   0.0322500), wk =   0.0051813
        k(  297) = (   0.3388897   0.3388897   0.0318917), wk =   0.0051813
        k(  298) = (   0.3350820   0.3350820   0.0315333), wk =   0.0051813
        k(  299) = (   0.3312742   0.3312742   0.0311750), wk =   0.0051813
        k(  300) = (   0.3274665   0.3274665   0.0308167), wk =   0.0051813
        k(  301) = (   0.3236587   0.3236587   0.0304583), wk =   0.0051813
        k(  302) = (   0.3198510   0.3198510   0.0301000), wk =   0.0051813
        k(  303) = (   0.3160432   0.3160432   0.0297417), wk =   0.0051813
        k(  304) = (   0.3122355   0.3122355   0.0293833), wk =   0.0051813
        k(  305) = (   0.3084278   0.3084278   0.0290250), wk =   0.0051813
        k(  306) = (   0.3046200   0.3046200   0.0286667), wk =   0.0051813
        k(  307) = (   0.3008123   0.3008123   0.0283083), wk =   0.0051813
        k(  308) = (   0.2970045   0.2970045   0.0279500), wk =   0.0051813
        k(  309) = (   0.2931968   0.2931968   0.0275917), wk =   0.0051813
        k(  310) = (   0.2893890   0.2893890   0.0272333), wk =   0.0051813
        k(  311) = (   0.2855813   0.2855813   0.0268750), wk =   0.0051813
        k(  312) = (   0.2817735   0.2817735   0.0265167), wk =   0.0051813
        k(  313) = (   0.2779658   0.2779658   0.0261583), wk =   0.0051813
        k(  314) = (   0.2741580   0.2741580   0.0258000), wk =   0.0051813
        k(  315) = (   0.2703503   0.2703503   0.0254417), wk =   0.0051813
        k(  316) = (   0.2665425   0.2665425   0.0250833), wk =   0.0051813
        k(  317) = (   0.2627348   0.2627348   0.0247250), wk =   0.0051813
        k(  318) = (   0.2589270   0.2589270   0.0243667), wk =   0.0051813
        k(  319) = (   0.2551193   0.2551193   0.0240083), wk =   0.0051813
        k(  320) = (   0.2513115   0.2513115   0.0236500), wk =   0.0051813
        k(  321) = (   0.2475038   0.2475038   0.0232917), wk =   0.0051813
        k(  322) = (   0.2436960   0.2436960   0.0229333), wk =   0.0051813
        k(  323) = (   0.2398883   0.2398883   0.0225750), wk =   0.0051813
        k(  324) = (   0.2360805   0.2360805   0.0222167), wk =   0.0051813
        k(  325) = (   0.2322728   0.2322728   0.0218583), wk =   0.0051813
        k(  326) = (   0.2284650   0.2284650   0.0215000), wk =   0.0051813
        k(  327) = (   0.2246573   0.2246573   0.0211417), wk =   0.0051813
        k(  328) = (   0.2208495   0.2208495   0.0207833), wk =   0.0051813
        k(  329) = (   0.2170417   0.2170417   0.0204250), wk =   0.0051813
        k(  330) = (   0.2132340   0.2132340   0.0200667), wk =   0.0051813
        k(  331) = (   0.2094263   0.2094263   0.0197083), wk =   0.0051813
        k(  332) = (   0.2056185   0.2056185   0.0193500), wk =   0.0051813
        k(  333) = (   0.2018107   0.2018107   0.0189917), wk =   0.0051813
        k(  334) = (   0.1980030   0.1980030   0.0186333), wk =   0.0051813
        k(  335) = (   0.1941953   0.1941953   0.0182750), wk =   0.0051813
        k(  336) = (   0.1903875   0.1903875   0.0179167), wk =   0.0051813
        k(  337) = (   0.1865797   0.1865797   0.0175583), wk =   0.0051813
        k(  338) = (   0.1827720   0.1827720   0.0172000), wk =   0.0051813
        k(  339) = (   0.1789643   0.1789643   0.0168417), wk =   0.0051813
        k(  340) = (   0.1751565   0.1751565   0.0164833), wk =   0.0051813
        k(  341) = (   0.1713487   0.1713487   0.0161250), wk =   0.0051813
        k(  342) = (   0.1675410   0.1675410   0.0157667), wk =   0.0051813
        k(  343) = (   0.1637333   0.1637333   0.0154083), wk =   0.0051813
        k(  344) = (   0.1599255   0.1599255   0.0150500), wk =   0.0051813
        k(  345) = (   0.1561177   0.1561177   0.0146917), wk =   0.0051813
        k(  346) = (   0.1523100   0.1523100   0.0143333), wk =   0.0051813
        k(  347) = (   0.1485023   0.1485023   0.0139750), wk =   0.0051813
        k(  348) = (   0.1446945   0.1446945   0.0136167), wk =   0.0051813
        k(  349) = (   0.1408868   0.1408868   0.0132583), wk =   0.0051813
        k(  350) = (   0.1370790   0.1370790   0.0129000), wk =   0.0051813
        k(  351) = (   0.1332713   0.1332713   0.0125417), wk =   0.0051813
        k(  352) = (   0.1294635   0.1294635   0.0121833), wk =   0.0051813
        k(  353) = (   0.1256558   0.1256558   0.0118250), wk =   0.0051813
        k(  354) = (   0.1218480   0.1218480   0.0114667), wk =   0.0051813
        k(  355) = (   0.1180403   0.1180403   0.0111083), wk =   0.0051813
        k(  356) = (   0.1142325   0.1142325   0.0107500), wk =   0.0051813
        k(  357) = (   0.1104248   0.1104248   0.0103917), wk =   0.0051813
        k(  358) = (   0.1066170   0.1066170   0.0100333), wk =   0.0051813
        k(  359) = (   0.1028092   0.1028092   0.0096750), wk =   0.0051813
        k(  360) = (   0.0990015   0.0990015   0.0093167), wk =   0.0051813
        k(  361) = (   0.0951938   0.0951938   0.0089583), wk =   0.0051813
        k(  362) = (   0.0913860   0.0913860   0.0086000), wk =   0.0051813
        k(  363) = (   0.0875782   0.0875782   0.0082417), wk =   0.0051813
        k(  364) = (   0.0837705   0.0837705   0.0078833), wk =   0.0051813
        k(  365) = (   0.0799628   0.0799628   0.0075250), wk =   0.0051813
        k(  366) = (   0.0761550   0.0761550   0.0071667), wk =   0.0051813
        k(  367) = (   0.0723472   0.0723472   0.0068083), wk =   0.0051813
        k(  368) = (   0.0685395   0.0685395   0.0064500), wk =   0.0051813
        k(  369) = (   0.0647318   0.0647318   0.0060917), wk =   0.0051813
        k(  370) = (   0.0609240   0.0609240   0.0057333), wk =   0.0051813
        k(  371) = (   0.0571162   0.0571162   0.0053750), wk =   0.0051813
        k(  372) = (   0.0533085   0.0533085   0.0050167), wk =   0.0051813
        k(  373) = (   0.0495008   0.0495008   0.0046583), wk =   0.0051813
        k(  374) = (   0.0456930   0.0456930   0.0043000), wk =   0.0051813
        k(  375) = (   0.0418852   0.0418852   0.0039417), wk =   0.0051813
        k(  376) = (   0.0380775   0.0380775   0.0035833), wk =   0.0051813
        k(  377) = (   0.0342698   0.0342698   0.0032250), wk =   0.0051813
        k(  378) = (   0.0304620   0.0304620   0.0028667), wk =   0.0051813
        k(  379) = (   0.0266542   0.0266542   0.0025083), wk =   0.0051813
        k(  380) = (   0.0228465   0.0228465   0.0021500), wk =   0.0051813
        k(  381) = (   0.0190387   0.0190387   0.0017917), wk =   0.0051813
        k(  382) = (   0.0152310   0.0152310   0.0014333), wk =   0.0051813
        k(  383) = (   0.0114232   0.0114232   0.0010750), wk =   0.0051813
        k(  384) = (   0.0076155   0.0076155   0.0007167), wk =   0.0051813
        k(  385) = (   0.0038077   0.0038077   0.0003583), wk =   0.0051813
        k(  386) = (   0.0000000   0.0000000   0.0000000), wk =   0.0051813

     Dense  grid:    41977 G-vectors     FFT dimensions: (  40,  40,  72)

     Smooth grid:    14855 G-vectors     FFT dimensions: (  32,  32,  48)

     Dynamical RAM for                 wfc:       0.62 MB

     Dynamical RAM for     wfc (w. buffer):       0.62 MB

     Dynamical RAM for           str. fact:       1.28 MB

     Dynamical RAM for           local pot:       0.00 MB

     Dynamical RAM for          nlocal pot:       2.04 MB

     Dynamical RAM for                qrad:       2.87 MB

     Dynamical RAM for          rho,v,vnew:       4.56 MB

     Dynamical RAM for           G-vectors:       2.52 MB

     Dynamical RAM for          h,s,v(r/c):       0.09 MB

     Dynamical RAM for          <psi|beta>:       0.02 MB

     Dynamical RAM for                 psi:       1.25 MB

     Dynamical RAM for                hpsi:       1.25 MB

     Dynamical RAM for                spsi:       1.25 MB

     Dynamical RAM for      wfcinit/wfcrot:       1.60 MB

     Dynamical RAM for           addusdens:     120.42 MB

     Estimated static dynamical RAM per process >      20.21 MB

     Estimated max dynamical RAM per process >     140.62 MB

     Check: negative core charge=   -0.000003

     The potential is recalculated from file :
     ./out/NbP_bulk.save/charge-density

     Starting wfcs are   28 randomized atomic wfcs
     Checking if some PAW data can be deallocated... 

     Band Structure Calculation
     Davidson diagonalization with overlap

     Computing kpt #:     1  of   386
     total cpu time spent up to now is        1.6 secs

     Computing kpt #:     2  of   386
     total cpu time spent up to now is        2.0 secs

     Computing kpt #:     3  of   386
     total cpu time spent up to now is        2.5 secs

     Computing kpt #:     4  of   386
     total cpu time spent up to now is        2.9 secs

     Computing kpt #:     5  of   386
     total cpu time spent up to now is        3.4 secs

     Computing kpt #:     6  of   386
     total cpu time spent up to now is        3.8 secs

     Computing kpt #:     7  of   386
     total cpu time spent up to now is        4.3 secs

     Computing kpt #:     8  of   386
     total cpu time spent up to now is        4.7 secs

     Computing kpt #:     9  of   386
     total cpu time spent up to now is        5.2 secs

     Computing kpt #:    10  of   386
     total cpu time spent up to now is        5.7 secs

     Computing kpt #:    11  of   386
     total cpu time spent up to now is        6.1 secs

     Computing kpt #:    12  of   386
     total cpu time spent up to now is        6.6 secs

     Computing kpt #:    13  of   386
     total cpu time spent up to now is        7.1 secs

     Computing kpt #:    14  of   386
     c_bands:  1 eigenvalues not converged
     total cpu time spent up to now is        7.7 secs

     Computing kpt #:    15  of   386
     total cpu time spent up to now is        8.3 secs

     Computing kpt #:    16  of   386
     total cpu time spent up to now is        8.8 secs

     Computing kpt #:    17  of   386
     total cpu time spent up to now is        9.3 secs

     Computing kpt #:    18  of   386
     total cpu time spent up to now is        9.8 secs

     Computing kpt #:    19  of   386
     total cpu time spent up to now is       10.3 secs

     Computing kpt #:    20  of   386
     total cpu time spent up to now is       10.7 secs

     Computing kpt #:    21  of   386
     total cpu time spent up to now is       11.2 secs

     Computing kpt #:    22  of   386
     total cpu time spent up to now is       11.6 secs

     Computing kpt #:    23  of   386
     total cpu time spent up to now is       12.1 secs

     Computing kpt #:    24  of   386
     total cpu time spent up to now is       12.5 secs

     Computing kpt #:    25  of   386
     total cpu time spent up to now is       13.0 secs

     Computing kpt #:    26  of   386
     total cpu time spent up to now is       13.4 secs

     Computing kpt #:    27  of   386
     total cpu time spent up to now is       13.9 secs

     Computing kpt #:    28  of   386
     total cpu time spent up to now is       14.3 secs

     Computing kpt #:    29  of   386
     total cpu time spent up to now is       14.7 secs

     Computing kpt #:    30  of   386
     total cpu time spent up to now is       15.2 secs

     Computing kpt #:    31  of   386
     total cpu time spent up to now is       15.6 secs

     Computing kpt #:    32  of   386
     total cpu time spent up to now is       16.0 secs

     Computing kpt #:    33  of   386
     total cpu time spent up to now is       16.4 secs

     Computing kpt #:    34  of   386
     total cpu time spent up to now is       16.9 secs

     Computing kpt #:    35  of   386
     total cpu time spent up to now is       17.3 secs

     Computing kpt #:    36  of   386
     total cpu time spent up to now is       17.7 secs

     Computing kpt #:    37  of   386
     total cpu time spent up to now is       18.1 secs

     Computing kpt #:    38  of   386
     total cpu time spent up to now is       18.6 secs

     Computing kpt #:    39  of   386
     total cpu time spent up to now is       19.0 secs

     Computing kpt #:    40  of   386
     total cpu time spent up to now is       19.4 secs

     Computing kpt #:    41  of   386
     total cpu time spent up to now is       19.8 secs

     Computing kpt #:    42  of   386
     total cpu time spent up to now is       20.2 secs

     Computing kpt #:    43  of   386
     total cpu time spent up to now is       20.6 secs

     Computing kpt #:    44  of   386
     total cpu time spent up to now is       21.1 secs

     Computing kpt #:    45  of   386
     total cpu time spent up to now is       21.5 secs

     Computing kpt #:    46  of   386
     total cpu time spent up to now is       21.9 secs

     Computing kpt #:    47  of   386
     total cpu time spent up to now is       22.3 secs

     Computing kpt #:    48  of   386
     total cpu time spent up to now is       22.7 secs

     Computing kpt #:    49  of   386
     total cpu time spent up to now is       23.2 secs

     Computing kpt #:    50  of   386
     total cpu time spent up to now is       23.6 secs

     Computing kpt #:    51  of   386
     total cpu time spent up to now is       24.0 secs

     Computing kpt #:    52  of   386
     total cpu time spent up to now is       24.4 secs

     Computing kpt #:    53  of   386
     total cpu time spent up to now is       24.8 secs

     Computing kpt #:    54  of   386
     total cpu time spent up to now is       25.3 secs

     Computing kpt #:    55  of   386
     total cpu time spent up to now is       25.7 secs

     Computing kpt #:    56  of   386
     total cpu time spent up to now is       26.2 secs

     Computing kpt #:    57  of   386
     total cpu time spent up to now is       26.6 secs

     Computing kpt #:    58  of   386
     total cpu time spent up to now is       27.0 secs

     Computing kpt #:    59  of   386
     total cpu time spent up to now is       27.4 secs

     Computing kpt #:    60  of   386
     total cpu time spent up to now is       27.9 secs

     Computing kpt #:    61  of   386
     total cpu time spent up to now is       28.3 secs

     Computing kpt #:    62  of   386
     total cpu time spent up to now is       28.8 secs

     Computing kpt #:    63  of   386
     total cpu time spent up to now is       29.2 secs

     Computing kpt #:    64  of   386
     total cpu time spent up to now is       29.6 secs

     Computing kpt #:    65  of   386
     total cpu time spent up to now is       30.0 secs

     Computing kpt #:    66  of   386
     total cpu time spent up to now is       30.5 secs

     Computing kpt #:    67  of   386
     total cpu time spent up to now is       30.9 secs

     Computing kpt #:    68  of   386
     total cpu time spent up to now is       31.4 secs

     Computing kpt #:    69  of   386
     total cpu time spent up to now is       31.9 secs

     Computing kpt #:    70  of   386
     total cpu time spent up to now is       32.4 secs

     Computing kpt #:    71  of   386
     total cpu time spent up to now is       32.8 secs

     Computing kpt #:    72  of   386
     total cpu time spent up to now is       33.2 secs

     Computing kpt #:    73  of   386
     total cpu time spent up to now is       33.7 secs

     Computing kpt #:    74  of   386
     total cpu time spent up to now is       34.1 secs

     Computing kpt #:    75  of   386
     total cpu time spent up to now is       34.7 secs

     Computing kpt #:    76  of   386
     total cpu time spent up to now is       35.2 secs

     Computing kpt #:    77  of   386
     total cpu time spent up to now is       35.7 secs

     Computing kpt #:    78  of   386
     total cpu time spent up to now is       36.3 secs

     Computing kpt #:    79  of   386
     total cpu time spent up to now is       36.7 secs

     Computing kpt #:    80  of   386
     total cpu time spent up to now is       37.2 secs

     Computing kpt #:    81  of   386
     total cpu time spent up to now is       37.7 secs

     Computing kpt #:    82  of   386
     total cpu time spent up to now is       38.1 secs

     Computing kpt #:    83  of   386
     total cpu time spent up to now is       38.6 secs

     Computing kpt #:    84  of   386
     total cpu time spent up to now is       39.0 secs

     Computing kpt #:    85  of   386
     total cpu time spent up to now is       39.4 secs

     Computing kpt #:    86  of   386
     total cpu time spent up to now is       39.9 secs

     Computing kpt #:    87  of   386
     total cpu time spent up to now is       40.3 secs

     Computing kpt #:    88  of   386
     total cpu time spent up to now is       40.7 secs

     Computing kpt #:    89  of   386
     total cpu time spent up to now is       41.1 secs

     Computing kpt #:    90  of   386
     total cpu time spent up to now is       41.6 secs

     Computing kpt #:    91  of   386
     total cpu time spent up to now is       42.0 secs

     Computing kpt #:    92  of   386
     total cpu time spent up to now is       42.4 secs

     Computing kpt #:    93  of   386
     total cpu time spent up to now is       42.9 secs

     Computing kpt #:    94  of   386
     total cpu time spent up to now is       43.3 secs

     Computing kpt #:    95  of   386
     total cpu time spent up to now is       43.7 secs

     Computing kpt #:    96  of   386
     total cpu time spent up to now is       44.1 secs

     Computing kpt #:    97  of   386
     total cpu time spent up to now is       44.6 secs

     Computing kpt #:    98  of   386
     total cpu time spent up to now is       45.0 secs

     Computing kpt #:    99  of   386
     total cpu time spent up to now is       45.4 secs

     Computing kpt #:   100  of   386
     total cpu time spent up to now is       45.9 secs

     Computing kpt #:   101  of   386
     total cpu time spent up to now is       46.3 secs

     Computing kpt #:   102  of   386
     total cpu time spent up to now is       46.8 secs

     Computing kpt #:   103  of   386
     total cpu time spent up to now is       47.2 secs

     Computing kpt #:   104  of   386
     total cpu time spent up to now is       47.6 secs

     Computing kpt #:   105  of   386
     total cpu time spent up to now is       48.1 secs

     Computing kpt #:   106  of   386
     total cpu time spent up to now is       48.5 secs

     Computing kpt #:   107  of   386
     total cpu time spent up to now is       49.0 secs

     Computing kpt #:   108  of   386
     total cpu time spent up to now is       49.4 secs

     Computing kpt #:   109  of   386
     total cpu time spent up to now is       49.9 secs

     Computing kpt #:   110  of   386
     total cpu time spent up to now is       50.3 secs

     Computing kpt #:   111  of   386
     total cpu time spent up to now is       50.8 secs

     Computing kpt #:   112  of   386
     total cpu time spent up to now is       51.3 secs

     Computing kpt #:   113  of   386
     total cpu time spent up to now is       51.8 secs

     Computing kpt #:   114  of   386
     total cpu time spent up to now is       52.3 secs

     Computing kpt #:   115  of   386
     total cpu time spent up to now is       52.7 secs

[...]

   -40.0109 -39.9788 -16.2810 -16.1647 -16.1521 -16.0149 -16.0041 -15.9381
     2.6058   4.5309   9.0929  11.1984  12.0356  12.1662  12.2251  12.9108
    13.7346  13.9243  15.3163  15.5952  17.3078  17.6757

     occupation numbers 
     1.0000   1.0000   1.0000   1.0000   1.0000   1.0000   1.0000   1.0000
     1.0000   1.0000   1.0000   1.0000   1.0000   1.0000   1.0000   1.0000
     1.0000   1.0000   0.0000   0.0000   0.0000   0.0000

          k = 0.1218 0.1218 0.0783 (  1859 PWs)   bands (ev):

   -40.0113 -39.9789 -16.2828 -16.1622 -16.1504 -16.0128 -16.0025 -15.9373
     2.5784   4.5317   9.0681  11.2283  12.0763  12.1946  12.2440  12.9147
    13.7179  13.9063  15.3156  15.6261  17.3252  17.6605

     occupation numbers 
     1.0000   1.0000   1.0000   1.0000   1.0000   1.0000   1.0000   1.0000
     1.0000   1.0000   1.0000   1.0000   1.0000   1.0000   1.0000   1.0000
     1.0000   1.0000   0.0000   0.0000   0.0000   0.0000

          k = 0.1180 0.1180 0.0758 (  1859 PWs)   bands (ev):

   -40.0118 -39.9790 -16.2846 -16.1598 -16.1489 -16.0107 -16.0009 -15.9364
     2.5516   4.5325   9.0438  11.2577  12.1161  12.2229  12.2626  12.9183
    13.7011  13.8878  15.3167  15.6581  17.3430  17.6457

     occupation numbers 
     1.0000   1.0000   1.0000   1.0000   1.0000   1.0000   1.0000   1.0000
     1.0000   1.0000   1.0000   1.0000   1.0000   1.0000   1.0000   1.0000
     1.0000   1.0000   0.0000   0.0000   0.0000   0.0000

          k = 0.1142 0.1142 0.0734 (  1860 PWs)   bands (ev):

   -40.0122 -39.9791 -16.2863 -16.1575 -16.1473 -16.0088 -15.9995 -15.9357
     2.5254   4.5334   9.0201  11.2865  12.1547  12.2511  12.2812  12.9216
    13.6842  13.8689  15.3196  15.6910  17.3613  17.6314

     occupation numbers 
     1.0000   1.0000   1.0000   1.0000   1.0000   1.0000   1.0000   1.0000
     1.0000   1.0000   1.0000   1.0000   1.0000   1.0000   1.0000   1.0000
     1.0000   1.0000   0.0000   0.0000   0.0000   0.0000

          k = 0.1104 0.1104 0.0709 (  1862 PWs)   bands (ev):

   -40.0127 -39.9792 -16.2881 -16.1553 -16.1458 -16.0068 -15.9980 -15.9349
     2.5000   4.5343   8.9971  11.3148  12.1921  12.2789  12.2997  12.9248
    13.6675  13.8496  15.3241  15.7247  17.3800  17.6177

     occupation numbers 
     1.0000   1.0000   1.0000   1.0000   1.0000   1.0000   1.0000   1.0000
     1.0000   1.0000   1.0000   1.0000   1.0000   1.0000   1.0000   1.0000
     1.0000   1.0000   0.0000   0.0000   0.0000   0.0000

          k = 0.1066 0.1066 0.0685 (  1862 PWs)   bands (ev):

   -40.0131 -39.9793 -16.2898 -16.1531 -16.1443 -16.0049 -15.9966 -15.9341
     2.4752   4.5353   8.9746  11.3426  12.2279  12.3064  12.3183  12.9278
    13.6509  13.8301  15.3301  15.7591  17.3992  17.6045

     occupation numbers 
     1.0000   1.0000   1.0000   1.0000   1.0000   1.0000   1.0000   1.0000
     1.0000   1.0000   1.0000   1.0000   1.0000   1.0000   1.0000   1.0000
     1.0000   1.0000   0.0000   0.0000   0.0000   0.0000

          k = 0.1028 0.1028 0.0660 (  1862 PWs)   bands (ev):

   -40.0135 -39.9794 -16.2915 -16.1510 -16.1428 -16.0031 -15.9952 -15.9334
     2.4512   4.5363   8.9528  11.3697  12.2618  12.3333  12.3373  12.9308
    13.6345  13.8106  15.3375  15.7938  17.4189  17.5918

     occupation numbers 
     1.0000   1.0000   1.0000   1.0000   1.0000   1.0000   1.0000   1.0000
     1.0000   1.0000   1.0000   1.0000   1.0000   1.0000   1.0000   1.0000
     1.0000   1.0000   0.0000   0.0000   0.0000   0.0000

          k = 0.0990 0.0990 0.0636 (  1864 PWs)   bands (ev):

   -40.0139 -39.9795 -16.2931 -16.1489 -16.1413 -16.0012 -15.9938 -15.9328
     2.4279   4.5373   8.9317  11.3963  12.2931  12.3572  12.3596  12.9338
    13.6185  13.7910  15.3463  15.8288  17.4390  17.5798

     occupation numbers 
     1.0000   1.0000   1.0000   1.0000   1.0000   1.0000   1.0000   1.0000
     1.0000   1.0000   1.0000   1.0000   1.0000   1.0000   1.0000   1.0000
     1.0000   1.0000   0.0000   0.0000   0.0000   0.0000

          k = 0.0952 0.0952 0.0611 (  1862 PWs)   bands (ev):

   -40.0142 -39.9796 -16.2947 -16.1469 -16.1399 -15.9995 -15.9925 -15.9321
     2.4053   4.5383   8.9113  11.4223  12.3213  12.3786  12.3851  12.9370
    13.6029  13.7715  15.3563  15.8639  17.4595  17.5684

     occupation numbers 
     1.0000   1.0000   1.0000   1.0000   1.0000   1.0000   1.0000   1.0000
     1.0000   1.0000   1.0000   1.0000   1.0000   1.0000   1.0000   1.0000
     1.0000   1.0000   0.0000   0.0000   0.0000   0.0000

          k = 0.0914 0.0914 0.0587 (  1862 PWs)   bands (ev):

   -40.0146 -39.9797 -16.2963 -16.1449 -16.1386 -15.9977 -15.9912 -15.9315
     2.3835   4.5394   8.8916  11.4476  12.3459  12.4018  12.4096  12.9404
    13.5879  13.7522  15.3673  15.8989  17.4805  17.5576

     occupation numbers 
     1.0000   1.0000   1.0000   1.0000   1.0000   1.0000   1.0000   1.0000
     1.0000   1.0000   1.0000   1.0000   1.0000   1.0000   1.0000   1.0000
     1.0000   1.0000   0.0000   0.0000   0.0000   0.0000

          k = 0.0876 0.0876 0.0562 (  1862 PWs)   bands (ev):

   -40.0150 -39.9797 -16.2978 -16.1431 -16.1372 -15.9960 -15.9900 -15.9309
     2.3625   4.5404   8.8726  11.4724  12.3670  12.4266  12.4330  12.9441
    13.5734  13.7331  15.3793  15.9336  17.5020  17.5476

     occupation numbers 
     1.0000   1.0000   1.0000   1.0000   1.0000   1.0000   1.0000   1.0000
     1.0000   1.0000   1.0000   1.0000   1.0000   1.0000   1.0000   1.0000
     1.0000   1.0000   0.0000   0.0000   0.0000   0.0000

          k = 0.0838 0.0838 0.0538 (  1860 PWs)   bands (ev):

   -40.0153 -39.9798 -16.2993 -16.1412 -16.1359 -15.9944 -15.9888 -15.9303
     2.3423   4.5415   8.8543  11.4966  12.3855  12.4520  12.4551  12.9483
    13.5597  13.7143  15.3921  15.9680  17.5239  17.5382

     occupation numbers 
     1.0000   1.0000   1.0000   1.0000   1.0000   1.0000   1.0000   1.0000
     1.0000   1.0000   1.0000   1.0000   1.0000   1.0000   1.0000   1.0000
     1.0000   1.0000   0.0000   0.0000   0.0000   0.0000

          k = 0.0800 0.0800 0.0514 (  1860 PWs)   bands (ev):

   -40.0156 -39.9799 -16.3007 -16.1395 -16.1347 -15.9928 -15.9877 -15.9298
     2.3229   4.5426   8.8368  11.5201  12.4021  12.4758  12.4772  12.9531
    13.5467  13.6958  15.4056  16.0018  17.5296  17.5462

     occupation numbers 
     1.0000   1.0000   1.0000   1.0000   1.0000   1.0000   1.0000   1.0000
     1.0000   1.0000   1.0000   1.0000   1.0000   1.0000   1.0000   1.0000
     1.0000   1.0000   0.0000   0.0000   0.0000   0.0000

          k = 0.0762 0.0762 0.0489 (  1862 PWs)   bands (ev):

   -40.0159 -39.9800 -16.3021 -16.1378 -16.1335 -15.9913 -15.9866 -15.9293
     2.3043   4.5436   8.8200  11.5429  12.4173  12.4949  12.5017  12.9586
    13.5347  13.6778  15.4195  16.0350  17.5217  17.5689

     occupation numbers 
     1.0000   1.0000   1.0000   1.0000   1.0000   1.0000   1.0000   1.0000
     1.0000   1.0000   1.0000   1.0000   1.0000   1.0000   1.0000   1.0000
     1.0000   1.0000   0.0000   0.0000   0.0000   0.0000

          k = 0.0723 0.0723 0.0465 (  1864 PWs)   bands (ev):

   -40.0162 -39.9800 -16.3034 -16.1363 -16.1323 -15.9899 -15.9855 -15.9288
     2.2865   4.5447   8.8039  11.5651  12.4316  12.5122  12.5248  12.9648
    13.5235  13.6603  15.4339  16.0673  17.5146  17.5920

     occupation numbers 
     1.0000   1.0000   1.0000   1.0000   1.0000   1.0000   1.0000   1.0000
     1.0000   1.0000   1.0000   1.0000   1.0000   1.0000   1.0000   1.0000
     1.0000   1.0000   0.0000   0.0000   0.0000   0.0000

          k = 0.0685 0.0685 0.0440 (  1860 PWs)   bands (ev):

   -40.0165 -39.9801 -16.3046 -16.1347 -16.1312 -15.9885 -15.9845 -15.9283
     2.2696   4.5457   8.7887  11.5866  12.4451  12.5276  12.5466  12.9719
    13.5134  13.6433  15.4485  16.0987  17.5082  17.6154

     occupation numbers 
     1.0000   1.0000   1.0000   1.0000   1.0000   1.0000   1.0000   1.0000
     1.0000   1.0000   1.0000   1.0000   1.0000   1.0000   1.0000   1.0000
     1.0000   1.0000   0.0000   0.0000   0.0000   0.0000

          k = 0.0647 0.0647 0.0416 (  1860 PWs)   bands (ev):

   -40.0168 -39.9802 -16.3058 -16.1333 -16.1302 -15.9871 -15.9836 -15.9279
     2.2535   4.5467   8.7742  11.6074  12.4579  12.5411  12.5667  12.9799
    13.5043  13.6268  15.4632  16.1291  17.5027  17.6391

     occupation numbers 
     1.0000   1.0000   1.0000   1.0000   1.0000   1.0000   1.0000   1.0000
     1.0000   1.0000   1.0000   1.0000   1.0000   1.0000   1.0000   1.0000
     1.0000   1.0000   0.0000   0.0000   0.0000   0.0000

          k = 0.0609 0.0609 0.0391 (  1860 PWs)   bands (ev):

   -40.0170 -39.9802 -16.3070 -16.1319 -16.1292 -15.9859 -15.9827 -15.9275
     2.2383   4.5477   8.7605  11.6275  12.4701  12.5527  12.5850  12.9888
    13.4962  13.6109  15.4778  16.1583  17.4979  17.6631

     occupation numbers 
     1.0000   1.0000   1.0000   1.0000   1.0000   1.0000   1.0000   1.0000
     1.0000   1.0000   1.0000   1.0000   1.0000   1.0000   1.0000   1.0000
     1.0000   1.0000   0.0000   0.0000   0.0000   0.0000

          k = 0.0571 0.0571 0.0367 (  1858 PWs)   bands (ev):

   -40.0173 -39.9803 -16.3081 -16.1306 -16.1282 -15.9846 -15.9818 -15.9272
     2.2240   4.5486   8.7477  11.6467  12.4818  12.5624  12.6015  12.9984
    13.4892  13.5956  15.4922  16.1862  17.4939  17.6871

     occupation numbers 
     1.0000   1.0000   1.0000   1.0000   1.0000   1.0000   1.0000   1.0000
     1.0000   1.0000   1.0000   1.0000   1.0000   1.0000   1.0000   1.0000
     1.0000   1.0000   0.0000   0.0000   0.0000   0.0000

          k = 0.0533 0.0533 0.0342 (  1858 PWs)   bands (ev):

   -40.0175 -39.9803 -16.3091 -16.1294 -16.1273 -15.9835 -15.9810 -15.9269
     2.2106   4.5495   8.7356  11.6651  12.4930  12.5703  12.6162  13.0088
    13.4833  13.5810  15.5064  16.2127  17.4906  17.7113

     occupation numbers 
     1.0000   1.0000   1.0000   1.0000   1.0000   1.0000   1.0000   1.0000
     1.0000   1.0000   1.0000   1.0000   1.0000   1.0000   1.0000   1.0000
     1.0000   1.0000   0.0000   0.0000   0.0000   0.0000

          k = 0.0495 0.0495 0.0318 (  1858 PWs)   bands (ev):

   -40.0177 -39.9804 -16.3101 -16.1283 -16.1265 -15.9824 -15.9802 -15.9266
     2.1980   4.5504   8.7243  11.6826  12.5037  12.5765  12.6291  13.0198
    13.4784  13.5670  15.5201  16.2378  17.4880  17.7353

     occupation numbers 
     1.0000   1.0000   1.0000   1.0000   1.0000   1.0000   1.0000   1.0000
     1.0000   1.0000   1.0000   1.0000   1.0000   1.0000   1.0000   1.0000
     1.0000   1.0000   0.0000   0.0000   0.0000   0.0000

          k = 0.0457 0.0457 0.0293 (  1862 PWs)   bands (ev):

   -40.0179 -39.9804 -16.3110 -16.1273 -16.1257 -15.9815 -15.9795 -15.9263
     2.1863   4.5512   8.7138  11.6992  12.5138  12.5811  12.6402  13.0311
    13.4745  13.5537  15.5332  16.2613  17.4862  17.7592

     occupation numbers 
     1.0000   1.0000   1.0000   1.0000   1.0000   1.0000   1.0000   1.0000
     1.0000   1.0000   1.0000   1.0000   1.0000   1.0000   1.0000   1.0000
     1.0000   1.0000   0.0000   0.0000   0.0000   0.0000

          k = 0.0419 0.0419 0.0269 (  1860 PWs)   bands (ev):

   -40.0181 -39.9805 -16.3118 -16.1263 -16.1250 -15.9805 -15.9789 -15.9260
     2.1756   4.5520   8.7042  11.7149  12.5235  12.5843  12.6496  13.0427
    13.4714  13.5412  15.5457  16.2832  17.4849  17.7826

     occupation numbers 
     1.0000   1.0000   1.0000   1.0000   1.0000   1.0000   1.0000   1.0000
     1.0000   1.0000   1.0000   1.0000   1.0000   1.0000   1.0000   1.0000
     1.0000   1.0000   0.0000   0.0000   0.0000   0.0000

          k = 0.0381 0.0381 0.0245 (  1861 PWs)   bands (ev):

   -40.0182 -39.9805 -16.3126 -16.1255 -16.1243 -15.9797 -15.9783 -15.9258
     2.1657   4.5527   8.6954  11.7294  12.5327  12.5865  12.6574  13.0543
    13.4692  13.5295  15.5574  16.3034  17.4843  17.8056

     occupation numbers 
     1.0000   1.0000   1.0000   1.0000   1.0000   1.0000   1.0000   1.0000
     1.0000   1.0000   1.0000   1.0000   1.0000   1.0000   1.0000   1.0000
     1.0000   1.0000   0.0000   0.0000   0.0000   0.0000

          k = 0.0343 0.0343 0.0220 (  1857 PWs)   bands (ev):

   -40.0184 -39.9805 -16.3132 -16.1246 -16.1237 -15.9789 -15.9777 -15.9256
     2.1568   4.5534   8.6874  11.7429  12.5413  12.5876  12.6637  13.0657
    13.4676  13.5185  15.5683  16.3218  17.4841  17.8277

     occupation numbers 
     1.0000   1.0000   1.0000   1.0000   1.0000   1.0000   1.0000   1.0000
     1.0000   1.0000   1.0000   1.0000   1.0000   1.0000   1.0000   1.0000
     1.0000   1.0000   0.0000   0.0000   0.0000   0.0000

          k = 0.0305 0.0305 0.0196 (  1857 PWs)   bands (ev):

   -40.0185 -39.9806 -16.3139 -16.1239 -16.1232 -15.9782 -15.9773 -15.9254
     2.1488   4.5540   8.6802  11.7552  12.5493  12.5880  12.6687  13.0766
    13.4667  13.5085  15.5782  16.3384  17.4844  17.8488

     occupation numbers 
     1.0000   1.0000   1.0000   1.0000   1.0000   1.0000   1.0000   1.0000
     1.0000   1.0000   1.0000   1.0000   1.0000   1.0000   1.0000   1.0000
     1.0000   1.0000   0.0000   0.0000   0.0000   0.0000

          k = 0.0267 0.0267 0.0171 (  1857 PWs)   bands (ev):

   -40.0186 -39.9806 -16.3144 -16.1233 -16.1227 -15.9775 -15.9768 -15.9252
     2.1418   4.5545   8.6739  11.7663  12.5567  12.5879  12.6724  13.0869
    13.4662  13.4993  15.5871  16.3532  17.4850  17.8686

     occupation numbers 
     1.0000   1.0000   1.0000   1.0000   1.0000   1.0000   1.0000   1.0000
     1.0000   1.0000   1.0000   1.0000   1.0000   1.0000   1.0000   1.0000
     1.0000   1.0000   0.0000   0.0000   0.0000   0.0000

          k = 0.0228 0.0228 0.0147 (  1859 PWs)   bands (ev):

   -40.0187 -39.9806 -16.3149 -16.1227 -16.1223 -15.9770 -15.9765 -15.9251
     2.1356   4.5550   8.6684  11.7760  12.5634  12.5874  12.6751  13.0963
    13.4660  13.4911  15.5949  16.3661  17.4858  17.8868

     occupation numbers 
     1.0000   1.0000   1.0000   1.0000   1.0000   1.0000   1.0000   1.0000
     1.0000   1.0000   1.0000   1.0000   1.0000   1.0000   1.0000   1.0000
     1.0000   1.0000   0.0000   0.0000   0.0000   0.0000

          k = 0.0190 0.0190 0.0122 (  1859 PWs)   bands (ev):

   -40.0188 -39.9806 -16.3153 -16.1222 -16.1220 -15.9765 -15.9762 -15.9250
     2.1304   4.5554   8.6638  11.7844  12.5693  12.5867  12.6769  13.1048
    13.4661  13.4840  15.6017  16.3771  17.4867  17.9030

     occupation numbers 
     1.0000   1.0000   1.0000   1.0000   1.0000   1.0000   1.0000   1.0000
     1.0000   1.0000   1.0000   1.0000   1.0000   1.0000   1.0000   1.0000
     1.0000   1.0000   0.0000   0.0000   0.0000   0.0000

          k = 0.0152 0.0152 0.0098 (  1855 PWs)   bands (ev):

   -40.0189 -39.9806 -16.3156 -16.1218 -16.1216 -15.9761 -15.9759 -15.9249
     2.1262   4.5557   8.6600  11.7913  12.5744  12.5859  12.6781  13.1119
    13.4663  13.4780  15.6073  16.3861  17.4876  17.9170

     occupation numbers 
     1.0000   1.0000   1.0000   1.0000   1.0000   1.0000   1.0000   1.0000
     1.0000   1.0000   1.0000   1.0000   1.0000   1.0000   1.0000   1.0000
     1.0000   1.0000   0.0000   0.0000   0.0000   0.0000

          k = 0.0114 0.0114 0.0073 (  1856 PWs)   bands (ev):

   -40.0189 -39.9807 -16.3159 -16.1215 -16.1214 -15.9758 -15.9757 -15.9248
     2.1229   4.5559   8.6570  11.7968  12.5785  12.5851  12.6788  13.1177
    13.4666  13.4733  15.6116  16.3931  17.4885  17.9283

     occupation numbers 
     1.0000   1.0000   1.0000   1.0000   1.0000   1.0000   1.0000   1.0000
     1.0000   1.0000   1.0000   1.0000   1.0000   1.0000   1.0000   1.0000
     1.0000   1.0000   0.0000   0.0000   0.0000   0.0000

          k = 0.0076 0.0076 0.0049 (  1856 PWs)   bands (ev):

   -40.0190 -39.9807 -16.3161 -16.1213 -16.1213 -15.9756 -15.9756 -15.9248
     2.1205   4.5561   8.6549  11.8007  12.5815  12.5845  12.6791  13.1219
    13.4668  13.4698  15.6148  16.3981  17.4891  17.9366

     occupation numbers 
     1.0000   1.0000   1.0000   1.0000   1.0000   1.0000   1.0000   1.0000
     1.0000   1.0000   1.0000   1.0000   1.0000   1.0000   1.0000   1.0000
     1.0000   1.0000   0.0000   0.0000   0.0000   0.0000

          k = 0.0038 0.0038 0.0024 (  1857 PWs)   bands (ev):

   -40.0190 -39.9807 -16.3162 -16.1212 -16.1212 -15.9755 -15.9755 -15.9247
     2.1191   4.5562   8.6536  11.8031  12.5833  12.5841  12.6793  13.1245
    13.4670  13.4677  15.6166  16.4011  17.4896  17.9419

     occupation numbers 
     1.0000   1.0000   1.0000   1.0000   1.0000   1.0000   1.0000   1.0000
     1.0000   1.0000   1.0000   1.0000   1.0000   1.0000   1.0000   1.0000
     1.0000   1.0000   0.0000   0.0000   0.0000   0.0000

          k = 0.0000 0.0000 0.0000 (  1857 PWs)   bands (ev):

   -40.0190 -39.9807 -16.3162 -16.1212 -16.1212 -15.9755 -15.9755 -15.9247
     2.1186   4.5563   8.6532  11.8039  12.5840  12.5840  12.6793  13.1254
    13.4670  13.4670  15.6173  16.4021  17.4897  17.9435

     occupation numbers 
     1.0000   1.0000   1.0000   1.0000   1.0000   1.0000   1.0000   1.0000
     1.0000   1.0000   1.0000   1.0000   1.0000   1.0000   1.0000   1.0000
     1.0000   1.0000   0.0000   0.0000   0.0000   0.0000

     the Fermi energy is    14.8265 ev
     (compare with:    14.8186 eV, computed in scf)

     Writing all to output data dir ./out/NbP_bulk.save/
 
     init_run     :      0.79s CPU      0.87s WALL (       1 calls)
     electrons    :    182.53s CPU    184.78s WALL (       1 calls)

     Called by init_run:
     wfcinit      :      0.00s CPU      0.00s WALL (       1 calls)
     wfcinit:atom :      0.11s CPU      0.13s WALL (     386 calls)
     wfcinit:wfcr :      5.09s CPU      5.18s WALL (     386 calls)
     potinit      :      0.22s CPU      0.24s WALL (       1 calls)
     hinit0       :      0.42s CPU      0.43s WALL (       1 calls)

     Called by electrons:
     c_bands      :    182.52s CPU    184.77s WALL (       1 calls)
     v_of_rho     :      0.02s CPU      0.03s WALL (       1 calls)
     v_h          :      0.00s CPU      0.00s WALL (       1 calls)
     v_xc         :      0.02s CPU      0.03s WALL (       1 calls)
     newd         :      0.08s CPU      0.13s WALL (       1 calls)
     PAW_pot      :      0.20s CPU      0.20s WALL (       1 calls)

     Called by c_bands:
     init_us_2    :      0.16s CPU      0.17s WALL (     386 calls)
     init_us_2:cp :      0.16s CPU      0.17s WALL (     386 calls)
     cegterg      :    174.35s CPU    175.58s WALL (    1380 calls)

     Called by sum_band:

     Called by *egterg:
     cdiaghg      :     10.63s CPU     10.72s WALL (   24587 calls)
     cegterg:over :      7.60s CPU      7.66s WALL (   24201 calls)
     cegterg:upda :      4.22s CPU      4.26s WALL (   24201 calls)
     cegterg:last :      9.09s CPU      9.16s WALL (   14118 calls)
     h_psi        :    137.60s CPU    138.61s WALL (   25967 calls)
     s_psi        :      6.56s CPU      6.62s WALL (   25967 calls)
     g_psi        :      1.13s CPU      1.14s WALL (   24201 calls)

     Called by h_psi:
     h_psi:calbec :      6.22s CPU      6.27s WALL (   25967 calls)
     vloc_psi     :    124.17s CPU    125.07s WALL (   25967 calls)
     add_vuspsi   :      6.52s CPU      6.59s WALL (   25967 calls)

     General routines
     calbec       :      6.16s CPU      6.23s WALL (   25967 calls)
     fft          :      0.01s CPU      0.02s WALL (      13 calls)
     ffts         :      0.00s CPU      0.00s WALL (       1 calls)
     fftw         :     89.47s CPU     89.99s WALL (  633574 calls)
     interpolate  :      0.00s CPU      0.00s WALL (       1 calls)
     davcio       :      0.09s CPU      0.96s WALL (     772 calls)
 
     Parallel routines

     PAW routines
     PAW_pot      :      0.20s CPU      0.20s WALL (       1 calls)
 
     PWSCF        :   3m 3.70s CPU   3m 9.17s WALL

 
   This run was terminated on:  11:52:41  19Feb2024            

=------------------------------------------------------------------------------=
   JOB DONE.
=------------------------------------------------------------------------------=
