
     Program PWSCF v.7.2 starts on 12Feb2024 at 20:10:57 

     This program is part of the open-source Quantum ESPRESSO suite
     for quantum simulation of materials; please cite
         "P. Giannozzi et al., J. Phys.:Condens. Matter 21 395502 (2009);
         "P. Giannozzi et al., J. Phys.:Condens. Matter 29 465901 (2017);
         "P. Giannozzi et al., J. Chem. Phys. 152 154105 (2020);
          URL http://www.quantum-espresso.org", 
     in publications or presentations arising from this work. More details at
     http://www.quantum-espresso.org/quote

     Parallel version (MPI), running on     1 processors

     MPI processes distributed on     1 nodes
     144235 MiB available memory on the printing compute node when the environment starts
 
     Waiting for input...
     Reading input from standard input

     Current dimensions of program PWSCF are:
     Max number of different atomic species (ntypx) = 10
     Max number of k-points (npk) =  40000
     Max angular momentum in pseudopotentials (lmaxx) =  4

     Atomic positions and unit cell read from directory:
     ./out/NbP.supercell.save/
     Atomic positions from file used, from input discarded
 
     file Nb.pbesol-spn-kjpaw_psl.0.3.0.UPF: wavefunction(s)  4S 4P renormalized
     Found identity + (  0.5000  0.0000  0.0000) symmetry
     This is a supercell, fractional translations are disabled
 
     Subspace diagonalization in iterative solution of the eigenvalue problem:
     a serial algorithm will be used

 
     G-vector sticks info
     --------------------
     sticks:   dense  smooth     PW     G-vecs:    dense   smooth      PW
     Sum        4093    2053    577               504019   178409   26175
 
     Using Slab Decomposition
 


     bravais-lattice index     =            0
     lattice parameter (alat)  =      12.6855  a.u.
     unit-cell volume          =    5216.7059 (a.u.)^3
     number of atoms/cell      =           16
     number of atomic types    =            2
     number of electrons       =       144.00
     number of Kohn-Sham states=           86
     kinetic-energy cutoff     =      40.0000  Ry
     charge density cutoff     =     320.0000  Ry
     Exchange-correlation= PBESOL
                           (   1   4  10   8   0   0   0)

     celldm(1)=  12.685497  celldm(2)=   0.000000  celldm(3)=   0.000000
     celldm(4)=   0.000000  celldm(5)=   0.000000  celldm(6)=   0.000000

     crystal axes: (cart. coord. in units of alat)
               a(1) = (   1.000000   0.000000   0.000000 )  
               a(2) = (   0.000000   1.000000   0.000000 )  
               a(3) = (  -0.750000  -0.750000   2.555488 )  

     reciprocal axes: (cart. coord. in units 2 pi/alat)
               b(1) = (  1.000000  0.000000  0.293486 )  
               b(2) = (  0.000000  1.000000  0.293486 )  
               b(3) = (  0.000000  0.000000  0.391315 )  


     PseudoPot. # 1 for Nb read from file:
     ./pseudo/Nb.pbesol-spn-kjpaw_psl.0.3.0.UPF
     MD5 check sum: 3501bca1474143575298708b2d32ca28
     Pseudo is Projector augmented-wave + core cor, Zval = 13.0
     Generated using "atomic" code by A. Dal Corso  v.6.0 svn rev. 13079
     Shape of augmentation charge: PSQ
     Using radial grid of 1227 points,  6 beta functions with: 
                l(1) =   0
                l(2) =   0
                l(3) =   1
                l(4) =   1
                l(5) =   2
                l(6) =   2
     Q(r) pseudized with 0 coefficients 


     PseudoPot. # 2 for P  read from file:
     ./pseudo/P.pbesol-n-rrkjus_psl.1.0.0.UPF
     MD5 check sum: bbb94b1b16383820d6a769669b5d42db
     Pseudo is Ultrasoft + core correction, Zval =  5.0
     Generated using "atomic" code by A. Dal Corso  v.6.0 svn rev. 13079
     Using radial grid of 1147 points,  6 beta functions with: 
                l(1) =   0
                l(2) =   0
                l(3) =   1
                l(4) =   1
                l(5) =   2
                l(6) =   2
     Q(r) pseudized with 0 coefficients 


     atomic species   valence    mass     pseudopotential
        Nb            13.00    92.90638     Nb( 1.00)
        P              5.00    30.97376     P ( 1.00)

     No symmetry found


                                    s                        frac. trans.

      isym =  1     identity                                     

 cryst.   s( 1) = (     1          0          0      )
                  (     0          1          0      )
                  (     0          0          1      )

 cart.    s( 1) = (  1.0000000  0.0000000  0.0000000 )
                  (  0.0000000  1.0000000  0.0000000 )
                  (  0.0000000  0.0000000  1.0000000 )


   Cartesian axes

     site n.     atom                  positions (alat units)
         1           Nb  tau(   1) = (   0.0000000   0.0000000   0.8516982  )
         2           Nb  tau(   2) = (   0.5000000   0.0000000   0.8516982  )
         3           Nb  tau(   3) = (   0.0000000   0.5000000   0.8516982  )
         4           Nb  tau(   4) = (   0.5000000   0.5000000   0.8516982  )
         5           Nb  tau(   5) = (   0.2500000   0.0000000   0.4257835  )
         6           Nb  tau(   6) = (   0.7500000   0.0000000   0.4257835  )
         7           Nb  tau(   7) = (   0.2500000   0.5000000   0.4257835  )
         8           Nb  tau(   8) = (   0.7500000   0.5000000   0.4257835  )
         9           P   tau(   9) = (   0.2500000   0.2500000   0.7111872  )
        10           P   tau(  10) = (   0.7500000   0.2500000   0.7111872  )
        11           P   tau(  11) = (   0.2500000   0.7500000   0.7111872  )
        12           P   tau(  12) = (   0.7500000   0.7500000   0.7111872  )
        13           P   tau(  13) = (   0.0000000   0.2500000   0.2852725  )
        14           P   tau(  14) = (   0.5000000   0.2500000   0.2852725  )
        15           P   tau(  15) = (   0.0000000   0.7500000   0.2852725  )
        16           P   tau(  16) = (   0.5000000   0.7500000   0.2852725  )

   Crystallographic axes

     site n.     atom                  positions (cryst. coord.)
         1           Nb  tau(   1) = (  0.2499615  0.2499615  0.3332820  )
         2           Nb  tau(   2) = (  0.7499615  0.2499615  0.3332820  )
         3           Nb  tau(   3) = (  0.2499615  0.7499615  0.3332820  )
         4           Nb  tau(   4) = (  0.7499615  0.7499615  0.3332820  )
         5           Nb  tau(   5) = (  0.3749615  0.1249615  0.1666153  )
         6           Nb  tau(   6) = (  0.8749615  0.1249615  0.1666153  )
         7           Nb  tau(   7) = (  0.3749615  0.6249615  0.1666153  )
         8           Nb  tau(   8) = (  0.8749615  0.6249615  0.1666153  )
         9           P   tau(   9) = (  0.4587235  0.4587235  0.2782980  )
        10           P   tau(  10) = (  0.9587235  0.4587235  0.2782980  )
        11           P   tau(  11) = (  0.4587235  0.9587235  0.2782980  )
        12           P   tau(  12) = (  0.9587235  0.9587235  0.2782980  )
        13           P   tau(  13) = (  0.0837235  0.3337235  0.1116313  )
        14           P   tau(  14) = (  0.5837235  0.3337235  0.1116313  )
        15           P   tau(  15) = (  0.0837235  0.8337235  0.1116313  )
        16           P   tau(  16) = (  0.5837235  0.8337235  0.1116313  )

     number of k points=   400  Marzari-Vanderbilt smearing, width (Ry)=  0.0073
                       cart. coord. in units 2pi/alat
        k(    1) = (   0.0000000   0.0000000   0.0000000), wk =   0.0050000
        k(    2) = (   0.0000000   0.0000000   0.0038364), wk =   0.0050000
        k(    3) = (   0.0000000   0.0000000   0.0076728), wk =   0.0050000
        k(    4) = (   0.0000000   0.0000000   0.0115093), wk =   0.0050000
        k(    5) = (   0.0000000   0.0000000   0.0153457), wk =   0.0050000
        k(    6) = (   0.0000000   0.0000000   0.0191821), wk =   0.0050000
        k(    7) = (   0.0000000   0.0000000   0.0230185), wk =   0.0050000
        k(    8) = (   0.0000000   0.0000000   0.0268549), wk =   0.0050000
        k(    9) = (   0.0000000   0.0000000   0.0306913), wk =   0.0050000
        k(   10) = (   0.0000000   0.0000000   0.0345278), wk =   0.0050000
        k(   11) = (   0.0000000   0.0000000   0.0383642), wk =   0.0050000
        k(   12) = (   0.0000000   0.0000000   0.0422006), wk =   0.0050000
        k(   13) = (   0.0000000   0.0000000   0.0460370), wk =   0.0050000
        k(   14) = (   0.0000000   0.0000000   0.0498734), wk =   0.0050000
        k(   15) = (   0.0000000   0.0000000   0.0537099), wk =   0.0050000
        k(   16) = (   0.0000000   0.0000000   0.0575463), wk =   0.0050000
        k(   17) = (   0.0000000   0.0000000   0.0613827), wk =   0.0050000
        k(   18) = (   0.0000000   0.0000000   0.0652191), wk =   0.0050000
        k(   19) = (   0.0000000   0.0000000   0.0690555), wk =   0.0050000
        k(   20) = (   0.0000000   0.0000000   0.0728919), wk =   0.0050000
        k(   21) = (   0.0000000   0.0000000   0.0767284), wk =   0.0050000
        k(   22) = (   0.0000000   0.0000000   0.0805648), wk =   0.0050000
        k(   23) = (   0.0000000   0.0000000   0.0844012), wk =   0.0050000
        k(   24) = (   0.0000000   0.0000000   0.0882376), wk =   0.0050000
        k(   25) = (   0.0000000   0.0000000   0.0920740), wk =   0.0050000
        k(   26) = (   0.0000000   0.0000000   0.0959105), wk =   0.0050000
        k(   27) = (   0.0000000   0.0000000   0.0997469), wk =   0.0050000
        k(   28) = (   0.0000000   0.0000000   0.1035833), wk =   0.0050000
        k(   29) = (   0.0000000   0.0000000   0.1074197), wk =   0.0050000
        k(   30) = (   0.0000000   0.0000000   0.1112561), wk =   0.0050000
        k(   31) = (   0.0000000   0.0000000   0.1150926), wk =   0.0050000
        k(   32) = (   0.0000000   0.0000000   0.1189290), wk =   0.0050000
        k(   33) = (   0.0000000   0.0000000   0.1227654), wk =   0.0050000
        k(   34) = (   0.0000000   0.0000000   0.1266018), wk =   0.0050000
        k(   35) = (   0.0000000   0.0000000   0.1304382), wk =   0.0050000
        k(   36) = (   0.0000000   0.0000000   0.1342746), wk =   0.0050000
        k(   37) = (   0.0000000   0.0000000   0.1381111), wk =   0.0050000
        k(   38) = (   0.0000000   0.0000000   0.1419475), wk =   0.0050000
        k(   39) = (   0.0000000   0.0000000   0.1457839), wk =   0.0050000
        k(   40) = (   0.0000000   0.0000000   0.1496203), wk =   0.0050000
        k(   41) = (   0.0000000   0.0000000   0.1534567), wk =   0.0050000
        k(   42) = (   0.0000000   0.0000000   0.1572932), wk =   0.0050000
        k(   43) = (   0.0000000   0.0000000   0.1611296), wk =   0.0050000
        k(   44) = (   0.0000000   0.0000000   0.1649660), wk =   0.0050000
        k(   45) = (   0.0000000   0.0000000   0.1688024), wk =   0.0050000
        k(   46) = (   0.0000000   0.0000000   0.1726388), wk =   0.0050000
        k(   47) = (   0.0000000   0.0000000   0.1764752), wk =   0.0050000
        k(   48) = (   0.0000000   0.0000000   0.1803117), wk =   0.0050000
        k(   49) = (   0.0000000   0.0000000   0.1841481), wk =   0.0050000
        k(   50) = (   0.0000000   0.0000000   0.1879845), wk =   0.0050000
        k(   51) = (   0.0000000   0.0000000   0.1918209), wk =   0.0050000
        k(   52) = (   0.0000000   0.0000000   0.1956573), wk =   0.0050000
        k(   53) = (   0.0057839   0.0000000   0.1962231), wk =   0.0050000
        k(   54) = (   0.0115678   0.0000000   0.1967890), wk =   0.0050000
        k(   55) = (   0.0173518   0.0000000   0.1973548), wk =   0.0050000
        k(   56) = (   0.0231357   0.0000000   0.1979206), wk =   0.0050000
        k(   57) = (   0.0289196   0.0000000   0.1984864), wk =   0.0050000
        k(   58) = (   0.0347035   0.0000000   0.1990522), wk =   0.0050000
        k(   59) = (   0.0404875   0.0000000   0.1996180), wk =   0.0050000
        k(   60) = (   0.0462714   0.0000000   0.2001838), wk =   0.0050000
        k(   61) = (   0.0520553   0.0000000   0.2007496), wk =   0.0050000
        k(   62) = (   0.0578392   0.0000000   0.2013154), wk =   0.0050000
        k(   63) = (   0.0636232   0.0000000   0.2018812), wk =   0.0050000
        k(   64) = (   0.0694071   0.0000000   0.2024470), wk =   0.0050000
        k(   65) = (   0.0751910   0.0000000   0.2030129), wk =   0.0050000
        k(   66) = (   0.0809749   0.0000000   0.2035787), wk =   0.0050000
        k(   67) = (   0.0867589   0.0000000   0.2041445), wk =   0.0050000
        k(   68) = (   0.0925428   0.0000000   0.2047103), wk =   0.0050000
        k(   69) = (   0.0983267   0.0000000   0.2052761), wk =   0.0050000
        k(   70) = (   0.1041106   0.0000000   0.2058419), wk =   0.0050000
        k(   71) = (   0.1098946   0.0000000   0.2064077), wk =   0.0050000
        k(   72) = (   0.1156785   0.0000000   0.2069735), wk =   0.0050000
        k(   73) = (   0.1214624   0.0000000   0.2075393), wk =   0.0050000
        k(   74) = (   0.1272463   0.0000000   0.2081051), wk =   0.0050000
        k(   75) = (   0.1330303   0.0000000   0.2086709), wk =   0.0050000
        k(   76) = (   0.1388142   0.0000000   0.2092367), wk =   0.0050000
        k(   77) = (   0.1445981   0.0000000   0.2098026), wk =   0.0050000
        k(   78) = (   0.1503820   0.0000000   0.2103684), wk =   0.0050000
        k(   79) = (   0.1561659   0.0000000   0.2109342), wk =   0.0050000
        k(   80) = (   0.1619499   0.0000000   0.2115000), wk =   0.0050000
        k(   81) = (   0.1677338   0.0000000   0.2120658), wk =   0.0050000
        k(   82) = (   0.1735177   0.0000000   0.2126316), wk =   0.0050000
        k(   83) = (   0.1793016   0.0000000   0.2131974), wk =   0.0050000
        k(   84) = (   0.1850856   0.0000000   0.2137632), wk =   0.0050000
        k(   85) = (   0.1908695   0.0000000   0.2143290), wk =   0.0050000
        k(   86) = (   0.1966534   0.0000000   0.2148948), wk =   0.0050000
        k(   87) = (   0.2024373   0.0000000   0.2154606), wk =   0.0050000
        k(   88) = (   0.2082213   0.0000000   0.2160265), wk =   0.0050000
        k(   89) = (   0.2140052   0.0000000   0.2165923), wk =   0.0050000
        k(   90) = (   0.2197891   0.0000000   0.2171581), wk =   0.0050000
        k(   91) = (   0.2255730   0.0000000   0.2177239), wk =   0.0050000
        k(   92) = (   0.2313570   0.0000000   0.2182897), wk =   0.0050000
        k(   93) = (   0.2371409   0.0000000   0.2188555), wk =   0.0050000
        k(   94) = (   0.2429248   0.0000000   0.2194213), wk =   0.0050000
        k(   95) = (   0.2487087   0.0000000   0.2199871), wk =   0.0050000
        k(   96) = (   0.2544927   0.0000000   0.2205529), wk =   0.0050000
        k(   97) = (   0.2602766   0.0000000   0.2211187), wk =   0.0050000
        k(   98) = (   0.2660605   0.0000000   0.2216845), wk =   0.0050000
        k(   99) = (   0.2718444   0.0000000   0.2222503), wk =   0.0050000
        k(  100) = (   0.2776284   0.0000000   0.2228162), wk =   0.0050000
        k(  101) = (   0.2834123   0.0000000   0.2233820), wk =   0.0050000
        k(  102) = (   0.2891962   0.0000000   0.2239478), wk =   0.0050000
        k(  103) = (   0.2949801   0.0000000   0.2245136), wk =   0.0050000
        k(  104) = (   0.3007641   0.0000000   0.2250794), wk =   0.0050000
        k(  105) = (   0.3065480   0.0000000   0.2256452), wk =   0.0050000
        k(  106) = (   0.3123319   0.0000000   0.2262110), wk =   0.0050000
        k(  107) = (   0.3181158   0.0000000   0.2267768), wk =   0.0050000
        k(  108) = (   0.3238997   0.0000000   0.2273426), wk =   0.0050000
        k(  109) = (   0.3296837   0.0000000   0.2279084), wk =   0.0050000
        k(  110) = (   0.3354676   0.0000000   0.2284742), wk =   0.0050000
        k(  111) = (   0.3412515   0.0000000   0.2290401), wk =   0.0050000
        k(  112) = (   0.3470354   0.0000000   0.2296059), wk =   0.0050000
        k(  113) = (   0.3528194   0.0000000   0.2301717), wk =   0.0050000
        k(  114) = (   0.3586033   0.0000000   0.2307375), wk =   0.0050000
        k(  115) = (   0.3643872   0.0000000   0.2313033), wk =   0.0050000
        k(  116) = (   0.3701711   0.0000000   0.2318691), wk =   0.0050000
        k(  117) = (   0.3759551   0.0000000   0.2324349), wk =   0.0050000
        k(  118) = (   0.3817390   0.0000000   0.2330007), wk =   0.0050000
        k(  119) = (   0.3875229   0.0000000   0.2335665), wk =   0.0050000
        k(  120) = (   0.3933068   0.0000000   0.2341323), wk =   0.0050000
        k(  121) = (   0.3990908   0.0000000   0.2346981), wk =   0.0050000
        k(  122) = (   0.4048747   0.0000000   0.2352640), wk =   0.0050000
        k(  123) = (   0.4106586   0.0000000   0.2358298), wk =   0.0050000
        k(  124) = (   0.4164425   0.0000000   0.2363956), wk =   0.0050000
        k(  125) = (   0.4222265   0.0000000   0.2369614), wk =   0.0050000
        k(  126) = (   0.4280104   0.0000000   0.2375272), wk =   0.0050000
        k(  127) = (   0.4337943   0.0000000   0.2380930), wk =   0.0050000
        k(  128) = (   0.4395782   0.0000000   0.2386588), wk =   0.0050000
        k(  129) = (   0.4453622   0.0000000   0.2392246), wk =   0.0050000
        k(  130) = (   0.4511461   0.0000000   0.2397904), wk =   0.0050000
        k(  131) = (   0.4569300   0.0000000   0.2403562), wk =   0.0050000
        k(  132) = (   0.4585865   0.0000000   0.2367557), wk =   0.0050000
        k(  133) = (   0.4602431   0.0000000   0.2331552), wk =   0.0050000
        k(  134) = (   0.4618996   0.0000000   0.2295547), wk =   0.0050000
        k(  135) = (   0.4635562   0.0000000   0.2259542), wk =   0.0050000
        k(  136) = (   0.4652127   0.0000000   0.2223537), wk =   0.0050000
        k(  137) = (   0.4668692   0.0000000   0.2187532), wk =   0.0050000
        k(  138) = (   0.4685258   0.0000000   0.2151527), wk =   0.0050000
        k(  139) = (   0.4701823   0.0000000   0.2115522), wk =   0.0050000
        k(  140) = (   0.4718388   0.0000000   0.2079517), wk =   0.0050000
        k(  141) = (   0.4734954   0.0000000   0.2043511), wk =   0.0050000
        k(  142) = (   0.4751519   0.0000000   0.2007506), wk =   0.0050000
        k(  143) = (   0.4768085   0.0000000   0.1971501), wk =   0.0050000
        k(  144) = (   0.4784650   0.0000000   0.1935496), wk =   0.0050000
        k(  145) = (   0.4801215   0.0000000   0.1899491), wk =   0.0050000
        k(  146) = (   0.4817781   0.0000000   0.1863486), wk =   0.0050000
        k(  147) = (   0.4834346   0.0000000   0.1827481), wk =   0.0050000
        k(  148) = (   0.4850912   0.0000000   0.1791476), wk =   0.0050000
        k(  149) = (   0.4867477   0.0000000   0.1755471), wk =   0.0050000
        k(  150) = (   0.4884042   0.0000000   0.1719466), wk =   0.0050000
        k(  151) = (   0.4900608   0.0000000   0.1683461), wk =   0.0050000
        k(  152) = (   0.4917173   0.0000000   0.1647455), wk =   0.0050000
        k(  153) = (   0.4933738   0.0000000   0.1611450), wk =   0.0050000
        k(  154) = (   0.4950304   0.0000000   0.1575445), wk =   0.0050000
        k(  155) = (   0.4966869   0.0000000   0.1539440), wk =   0.0050000
        k(  156) = (   0.4983435   0.0000000   0.1503435), wk =   0.0050000
        k(  157) = (   0.5000000   0.0000000   0.1467430), wk =   0.0050000
        k(  158) = (   0.5016565   0.0000000   0.1431425), wk =   0.0050000
        k(  159) = (   0.5033131   0.0000000   0.1395420), wk =   0.0050000
        k(  160) = (   0.5049696   0.0000000   0.1359415), wk =   0.0050000
        k(  161) = (   0.5066262   0.0000000   0.1323410), wk =   0.0050000
        k(  162) = (   0.5082827   0.0000000   0.1287405), wk =   0.0050000
        k(  163) = (   0.5099392   0.0000000   0.1251399), wk =   0.0050000
        k(  164) = (   0.5115958   0.0000000   0.1215394), wk =   0.0050000
        k(  165) = (   0.5132523   0.0000000   0.1179389), wk =   0.0050000
        k(  166) = (   0.5149088   0.0000000   0.1143384), wk =   0.0050000
        k(  167) = (   0.5165654   0.0000000   0.1107379), wk =   0.0050000
        k(  168) = (   0.5182219   0.0000000   0.1071374), wk =   0.0050000
        k(  169) = (   0.5198785   0.0000000   0.1035369), wk =   0.0050000
        k(  170) = (   0.5215350   0.0000000   0.0999364), wk =   0.0050000
        k(  171) = (   0.5231915   0.0000000   0.0963359), wk =   0.0050000
        k(  172) = (   0.5248481   0.0000000   0.0927354), wk =   0.0050000
        k(  173) = (   0.5265046   0.0000000   0.0891349), wk =   0.0050000
        k(  174) = (   0.5281612   0.0000000   0.0855344), wk =   0.0050000
        k(  175) = (   0.5298177   0.0000000   0.0819338), wk =   0.0050000
        k(  176) = (   0.5314742   0.0000000   0.0783333), wk =   0.0050000
        k(  177) = (   0.5331308   0.0000000   0.0747328), wk =   0.0050000
        k(  178) = (   0.5347873   0.0000000   0.0711323), wk =   0.0050000
        k(  179) = (   0.5364438   0.0000000   0.0675318), wk =   0.0050000
        k(  180) = (   0.5381004   0.0000000   0.0639313), wk =   0.0050000
        k(  181) = (   0.5397569   0.0000000   0.0603308), wk =   0.0050000
        k(  182) = (   0.5414135   0.0000000   0.0567303), wk =   0.0050000
        k(  183) = (   0.5430700   0.0000000   0.0531298), wk =   0.0050000
        k(  184) = (   0.5421633   0.0048098   0.0555711), wk =   0.0050000
        k(  185) = (   0.5412565   0.0096196   0.0580125), wk =   0.0050000
        k(  186) = (   0.5403498   0.0144294   0.0604539), wk =   0.0050000
        k(  187) = (   0.5394431   0.0192392   0.0628952), wk =   0.0050000
        k(  188) = (   0.5385363   0.0240489   0.0653366), wk =   0.0050000
        k(  189) = (   0.5376296   0.0288587   0.0677779), wk =   0.0050000
        k(  190) = (   0.5367228   0.0336685   0.0702193), wk =   0.0050000
        k(  191) = (   0.5358161   0.0384783   0.0726607), wk =   0.0050000
        k(  192) = (   0.5349094   0.0432881   0.0751020), wk =   0.0050000
        k(  193) = (   0.5340026   0.0480979   0.0775434), wk =   0.0050000
        k(  194) = (   0.5330959   0.0529077   0.0799847), wk =   0.0050000
        k(  195) = (   0.5321892   0.0577175   0.0824261), wk =   0.0050000
        k(  196) = (   0.5312824   0.0625273   0.0848675), wk =   0.0050000
        k(  197) = (   0.5303757   0.0673371   0.0873088), wk =   0.0050000
        k(  198) = (   0.5294689   0.0721468   0.0897502), wk =   0.0050000
        k(  199) = (   0.5285622   0.0769566   0.0921915), wk =   0.0050000
        k(  200) = (   0.5276555   0.0817664   0.0946329), wk =   0.0050000
        k(  201) = (   0.5267487   0.0865762   0.0970743), wk =   0.0050000
        k(  202) = (   0.5258420   0.0913860   0.0995156), wk =   0.0050000
        k(  203) = (   0.5249353   0.0961958   0.1019570), wk =   0.0050000
        k(  204) = (   0.5240285   0.1010056   0.1043983), wk =   0.0050000
        k(  205) = (   0.5231218   0.1058154   0.1068397), wk =   0.0050000
        k(  206) = (   0.5222151   0.1106252   0.1092811), wk =   0.0050000
        k(  207) = (   0.5213083   0.1154349   0.1117224), wk =   0.0050000
        k(  208) = (   0.5204016   0.1202447   0.1141638), wk =   0.0050000
        k(  209) = (   0.5194948   0.1250545   0.1166052), wk =   0.0050000
        k(  210) = (   0.5185881   0.1298643   0.1190465), wk =   0.0050000
        k(  211) = (   0.5176814   0.1346741   0.1214879), wk =   0.0050000
        k(  212) = (   0.5167746   0.1394839   0.1239292), wk =   0.0050000
        k(  213) = (   0.5158679   0.1442937   0.1263706), wk =   0.0050000
        k(  214) = (   0.5149612   0.1491035   0.1288120), wk =   0.0050000
        k(  215) = (   0.5140544   0.1539133   0.1312533), wk =   0.0050000
        k(  216) = (   0.5131477   0.1587231   0.1336947), wk =   0.0050000
        k(  217) = (   0.5122409   0.1635328   0.1361360), wk =   0.0050000
        k(  218) = (   0.5113342   0.1683426   0.1385774), wk =   0.0050000
        k(  219) = (   0.5104275   0.1731524   0.1410188), wk =   0.0050000
        k(  220) = (   0.5095207   0.1779622   0.1434601), wk =   0.0050000
        k(  221) = (   0.5086140   0.1827720   0.1459015), wk =   0.0050000
        k(  222) = (   0.5077073   0.1875818   0.1483428), wk =   0.0050000
        k(  223) = (   0.5068005   0.1923916   0.1507842), wk =   0.0050000
        k(  224) = (   0.5058938   0.1972014   0.1532256), wk =   0.0050000
        k(  225) = (   0.5049871   0.2020112   0.1556669), wk =   0.0050000
        k(  226) = (   0.5040803   0.2068209   0.1581083), wk =   0.0050000
        k(  227) = (   0.5031736   0.2116307   0.1605496), wk =   0.0050000
        k(  228) = (   0.5022668   0.2164405   0.1629910), wk =   0.0050000
        k(  229) = (   0.5013601   0.2212503   0.1654324), wk =   0.0050000
        k(  230) = (   0.5004534   0.2260601   0.1678737), wk =   0.0050000
        k(  231) = (   0.4995466   0.2308699   0.1703151), wk =   0.0050000
        k(  232) = (   0.4986399   0.2356797   0.1727564), wk =   0.0050000
        k(  233) = (   0.4977332   0.2404895   0.1751978), wk =   0.0050000
        k(  234) = (   0.4968264   0.2452993   0.1776392), wk =   0.0050000
        k(  235) = (   0.4959197   0.2501091   0.1800805), wk =   0.0050000
        k(  236) = (   0.4950129   0.2549188   0.1825219), wk =   0.0050000
        k(  237) = (   0.4941062   0.2597286   0.1849633), wk =   0.0050000
        k(  238) = (   0.4931995   0.2645384   0.1874046), wk =   0.0050000
        k(  239) = (   0.4922927   0.2693482   0.1898460), wk =   0.0050000
        k(  240) = (   0.4913860   0.2741580   0.1922873), wk =   0.0050000
        k(  241) = (   0.4904793   0.2789678   0.1947287), wk =   0.0050000
        k(  242) = (   0.4895725   0.2837776   0.1971701), wk =   0.0050000
        k(  243) = (   0.4886658   0.2885874   0.1996114), wk =   0.0050000
        k(  244) = (   0.4877591   0.2933972   0.2020528), wk =   0.0050000
        k(  245) = (   0.4868523   0.2982069   0.2044941), wk =   0.0050000
        k(  246) = (   0.4859456   0.3030167   0.2069355), wk =   0.0050000
        k(  247) = (   0.4850388   0.3078265   0.2093769), wk =   0.0050000
        k(  248) = (   0.4841321   0.3126363   0.2118182), wk =   0.0050000
        k(  249) = (   0.4832254   0.3174461   0.2142596), wk =   0.0050000
        k(  250) = (   0.4823186   0.3222559   0.2167009), wk =   0.0050000
        k(  251) = (   0.4814119   0.3270657   0.2191423), wk =   0.0050000
        k(  252) = (   0.4805052   0.3318755   0.2215837), wk =   0.0050000
        k(  253) = (   0.4795984   0.3366853   0.2240250), wk =   0.0050000
        k(  254) = (   0.4786917   0.3414951   0.2264664), wk =   0.0050000
        k(  255) = (   0.4777849   0.3463048   0.2289077), wk =   0.0050000
        k(  256) = (   0.4768782   0.3511146   0.2313491), wk =   0.0050000
        k(  257) = (   0.4759715   0.3559244   0.2337905), wk =   0.0050000
        k(  258) = (   0.4750647   0.3607342   0.2362318), wk =   0.0050000
        k(  259) = (   0.4741580   0.3655440   0.2386732), wk =   0.0050000
        k(  260) = (   0.4732513   0.3703538   0.2411145), wk =   0.0050000
        k(  261) = (   0.4723445   0.3751636   0.2435559), wk =   0.0050000
        k(  262) = (   0.4714378   0.3799734   0.2459973), wk =   0.0050000
        k(  263) = (   0.4705311   0.3847832   0.2484386), wk =   0.0050000
        k(  264) = (   0.4696243   0.3895929   0.2508800), wk =   0.0050000
        k(  265) = (   0.4687176   0.3944027   0.2533214), wk =   0.0050000
        k(  266) = (   0.4678108   0.3992125   0.2557627), wk =   0.0050000
        k(  267) = (   0.4669041   0.4040223   0.2582041), wk =   0.0050000
        k(  268) = (   0.4659974   0.4088321   0.2606454), wk =   0.0050000
        k(  269) = (   0.4650906   0.4136419   0.2630868), wk =   0.0050000
        k(  270) = (   0.4641839   0.4184517   0.2655282), wk =   0.0050000
        k(  271) = (   0.4632772   0.4232615   0.2679695), wk =   0.0050000
        k(  272) = (   0.4623704   0.4280713   0.2704109), wk =   0.0050000
        k(  273) = (   0.4614637   0.4328811   0.2728522), wk =   0.0050000
        k(  274) = (   0.4605569   0.4376908   0.2752936), wk =   0.0050000
        k(  275) = (   0.4596502   0.4425006   0.2777350), wk =   0.0050000
        k(  276) = (   0.4587435   0.4473104   0.2801763), wk =   0.0050000
        k(  277) = (   0.4578367   0.4521202   0.2826177), wk =   0.0050000
        k(  278) = (   0.4569300   0.4569300   0.2850590), wk =   0.0050000
        k(  279) = (   0.4531847   0.4531847   0.2827225), wk =   0.0050000
        k(  280) = (   0.4494393   0.4494393   0.2803859), wk =   0.0050000
        k(  281) = (   0.4456940   0.4456940   0.2780494), wk =   0.0050000
        k(  282) = (   0.4419487   0.4419487   0.2757128), wk =   0.0050000
        k(  283) = (   0.4382034   0.4382034   0.2733763), wk =   0.0050000
        k(  284) = (   0.4344580   0.4344580   0.2710397), wk =   0.0050000
        k(  285) = (   0.4307127   0.4307127   0.2687032), wk =   0.0050000
        k(  286) = (   0.4269674   0.4269674   0.2663666), wk =   0.0050000
        k(  287) = (   0.4232220   0.4232220   0.2640301), wk =   0.0050000
        k(  288) = (   0.4194767   0.4194767   0.2616935), wk =   0.0050000
        k(  289) = (   0.4157314   0.4157314   0.2593570), wk =   0.0050000
        k(  290) = (   0.4119861   0.4119861   0.2570204), wk =   0.0050000
        k(  291) = (   0.4082407   0.4082407   0.2546839), wk =   0.0050000
        k(  292) = (   0.4044954   0.4044954   0.2523473), wk =   0.0050000
        k(  293) = (   0.4007501   0.4007501   0.2500108), wk =   0.0050000
        k(  294) = (   0.3970048   0.3970048   0.2476742), wk =   0.0050000
        k(  295) = (   0.3932594   0.3932594   0.2453377), wk =   0.0050000
        k(  296) = (   0.3895141   0.3895141   0.2430012), wk =   0.0050000
        k(  297) = (   0.3857688   0.3857688   0.2406646), wk =   0.0050000
        k(  298) = (   0.3820234   0.3820234   0.2383281), wk =   0.0050000
        k(  299) = (   0.3782781   0.3782781   0.2359915), wk =   0.0050000
        k(  300) = (   0.3745328   0.3745328   0.2336550), wk =   0.0050000
        k(  301) = (   0.3707875   0.3707875   0.2313184), wk =   0.0050000
        k(  302) = (   0.3670421   0.3670421   0.2289819), wk =   0.0050000
        k(  303) = (   0.3632968   0.3632968   0.2266453), wk =   0.0050000
        k(  304) = (   0.3595515   0.3595515   0.2243088), wk =   0.0050000
        k(  305) = (   0.3558061   0.3558061   0.2219722), wk =   0.0050000
        k(  306) = (   0.3520608   0.3520608   0.2196357), wk =   0.0050000
        k(  307) = (   0.3483155   0.3483155   0.2172991), wk =   0.0050000
        k(  308) = (   0.3445702   0.3445702   0.2149626), wk =   0.0050000
        k(  309) = (   0.3408248   0.3408248   0.2126260), wk =   0.0050000
        k(  310) = (   0.3370795   0.3370795   0.2102895), wk =   0.0050000
        k(  311) = (   0.3333342   0.3333342   0.2079529), wk =   0.0050000
        k(  312) = (   0.3295889   0.3295889   0.2056164), wk =   0.0050000
        k(  313) = (   0.3258435   0.3258435   0.2032798), wk =   0.0050000
        k(  314) = (   0.3220982   0.3220982   0.2009433), wk =   0.0050000
        k(  315) = (   0.3183529   0.3183529   0.1986067), wk =   0.0050000
        k(  316) = (   0.3146075   0.3146075   0.1962702), wk =   0.0050000
        k(  317) = (   0.3108622   0.3108622   0.1939336), wk =   0.0050000
        k(  318) = (   0.3071169   0.3071169   0.1915971), wk =   0.0050000
        k(  319) = (   0.3033716   0.3033716   0.1892605), wk =   0.0050000
        k(  320) = (   0.2996262   0.2996262   0.1869240), wk =   0.0050000
        k(  321) = (   0.2958809   0.2958809   0.1845874), wk =   0.0050000
        k(  322) = (   0.2921356   0.2921356   0.1822509), wk =   0.0050000
        k(  323) = (   0.2883902   0.2883902   0.1799143), wk =   0.0050000
        k(  324) = (   0.2846449   0.2846449   0.1775778), wk =   0.0050000
        k(  325) = (   0.2808996   0.2808996   0.1752412), wk =   0.0050000
        k(  326) = (   0.2771543   0.2771543   0.1729047), wk =   0.0050000
        k(  327) = (   0.2734089   0.2734089   0.1705681), wk =   0.0050000
        k(  328) = (   0.2696636   0.2696636   0.1682316), wk =   0.0050000
        k(  329) = (   0.2659183   0.2659183   0.1658950), wk =   0.0050000
        k(  330) = (   0.2621730   0.2621730   0.1635585), wk =   0.0050000
        k(  331) = (   0.2584276   0.2584276   0.1612219), wk =   0.0050000
        k(  332) = (   0.2546823   0.2546823   0.1588854), wk =   0.0050000
        k(  333) = (   0.2509370   0.2509370   0.1565488), wk =   0.0050000
        k(  334) = (   0.2471916   0.2471916   0.1542123), wk =   0.0050000
        k(  335) = (   0.2434463   0.2434463   0.1518757), wk =   0.0050000
        k(  336) = (   0.2397010   0.2397010   0.1495392), wk =   0.0050000
        k(  337) = (   0.2359557   0.2359557   0.1472026), wk =   0.0050000
        k(  338) = (   0.2322103   0.2322103   0.1448661), wk =   0.0050000
        k(  339) = (   0.2284650   0.2284650   0.1425295), wk =   0.0050000
        k(  340) = (   0.2247197   0.2247197   0.1401930), wk =   0.0050000
        k(  341) = (   0.2209743   0.2209743   0.1378564), wk =   0.0050000
        k(  342) = (   0.2172290   0.2172290   0.1355199), wk =   0.0050000
        k(  343) = (   0.2134837   0.2134837   0.1331833), wk =   0.0050000
        k(  344) = (   0.2097384   0.2097384   0.1308468), wk =   0.0050000
        k(  345) = (   0.2059930   0.2059930   0.1285102), wk =   0.0050000
        k(  346) = (   0.2022477   0.2022477   0.1261737), wk =   0.0050000
        k(  347) = (   0.1985024   0.1985024   0.1238371), wk =   0.0050000
        k(  348) = (   0.1947570   0.1947570   0.1215006), wk =   0.0050000
        k(  349) = (   0.1910117   0.1910117   0.1191640), wk =   0.0050000
        k(  350) = (   0.1872664   0.1872664   0.1168275), wk =   0.0050000
        k(  351) = (   0.1835211   0.1835211   0.1144909), wk =   0.0050000
        k(  352) = (   0.1797757   0.1797757   0.1121544), wk =   0.0050000
        k(  353) = (   0.1760304   0.1760304   0.1098178), wk =   0.0050000
        k(  354) = (   0.1722851   0.1722851   0.1074813), wk =   0.0050000
        k(  355) = (   0.1685398   0.1685398   0.1051447), wk =   0.0050000
        k(  356) = (   0.1647944   0.1647944   0.1028082), wk =   0.0050000
        k(  357) = (   0.1610491   0.1610491   0.1004716), wk =   0.0050000
        k(  358) = (   0.1573038   0.1573038   0.0981351), wk =   0.0050000
        k(  359) = (   0.1535584   0.1535584   0.0957985), wk =   0.0050000
        k(  360) = (   0.1498131   0.1498131   0.0934620), wk =   0.0050000
        k(  361) = (   0.1460678   0.1460678   0.0911254), wk =   0.0050000
        k(  362) = (   0.1423225   0.1423225   0.0887889), wk =   0.0050000
        k(  363) = (   0.1385771   0.1385771   0.0864523), wk =   0.0050000
        k(  364) = (   0.1348318   0.1348318   0.0841158), wk =   0.0050000
        k(  365) = (   0.1310865   0.1310865   0.0817792), wk =   0.0050000
        k(  366) = (   0.1273411   0.1273411   0.0794427), wk =   0.0050000
        k(  367) = (   0.1235958   0.1235958   0.0771061), wk =   0.0050000
        k(  368) = (   0.1198505   0.1198505   0.0747696), wk =   0.0050000
        k(  369) = (   0.1161052   0.1161052   0.0724330), wk =   0.0050000
        k(  370) = (   0.1123598   0.1123598   0.0700965), wk =   0.0050000
        k(  371) = (   0.1086145   0.1086145   0.0677599), wk =   0.0050000
        k(  372) = (   0.1048692   0.1048692   0.0654234), wk =   0.0050000
        k(  373) = (   0.1011239   0.1011239   0.0630868), wk =   0.0050000
        k(  374) = (   0.0973785   0.0973785   0.0607503), wk =   0.0050000
        k(  375) = (   0.0936332   0.0936332   0.0584137), wk =   0.0050000
        k(  376) = (   0.0898879   0.0898879   0.0560772), wk =   0.0050000
        k(  377) = (   0.0861425   0.0861425   0.0537406), wk =   0.0050000
        k(  378) = (   0.0823972   0.0823972   0.0514041), wk =   0.0050000
        k(  379) = (   0.0786519   0.0786519   0.0490675), wk =   0.0050000
        k(  380) = (   0.0749066   0.0749066   0.0467310), wk =   0.0050000
        k(  381) = (   0.0711612   0.0711612   0.0443944), wk =   0.0050000
        k(  382) = (   0.0674159   0.0674159   0.0420579), wk =   0.0050000
        k(  383) = (   0.0636706   0.0636706   0.0397213), wk =   0.0050000
        k(  384) = (   0.0599252   0.0599252   0.0373848), wk =   0.0050000
        k(  385) = (   0.0561799   0.0561799   0.0350482), wk =   0.0050000
        k(  386) = (   0.0524346   0.0524346   0.0327117), wk =   0.0050000
        k(  387) = (   0.0486893   0.0486893   0.0303751), wk =   0.0050000
        k(  388) = (   0.0449439   0.0449439   0.0280386), wk =   0.0050000
        k(  389) = (   0.0411986   0.0411986   0.0257020), wk =   0.0050000
        k(  390) = (   0.0374533   0.0374533   0.0233655), wk =   0.0050000
        k(  391) = (   0.0337080   0.0337080   0.0210289), wk =   0.0050000
        k(  392) = (   0.0299626   0.0299626   0.0186924), wk =   0.0050000
        k(  393) = (   0.0262173   0.0262173   0.0163558), wk =   0.0050000
        k(  394) = (   0.0224720   0.0224720   0.0140193), wk =   0.0050000
        k(  395) = (   0.0187266   0.0187266   0.0116827), wk =   0.0050000
        k(  396) = (   0.0149813   0.0149813   0.0093462), wk =   0.0050000
        k(  397) = (   0.0112360   0.0112360   0.0070096), wk =   0.0050000
        k(  398) = (   0.0074907   0.0074907   0.0046731), wk =   0.0050000
        k(  399) = (   0.0037453   0.0037453   0.0023365), wk =   0.0050000
        k(  400) = (   0.0000000   0.0000000   0.0000000), wk =   0.0050000

                       cryst. coord.
        k(    1) = (   0.0000000   0.0000000   0.0000000), wk =   0.0050000
        k(    2) = (   0.0000000   0.0000000   0.0098039), wk =   0.0050000
        k(    3) = (   0.0000000   0.0000000   0.0196078), wk =   0.0050000
        k(    4) = (   0.0000000   0.0000000   0.0294118), wk =   0.0050000
        k(    5) = (   0.0000000   0.0000000   0.0392157), wk =   0.0050000
        k(    6) = (   0.0000000   0.0000000   0.0490196), wk =   0.0050000
        k(    7) = (   0.0000000   0.0000000   0.0588235), wk =   0.0050000
        k(    8) = (   0.0000000   0.0000000   0.0686275), wk =   0.0050000
        k(    9) = (   0.0000000   0.0000000   0.0784314), wk =   0.0050000
        k(   10) = (   0.0000000   0.0000000   0.0882353), wk =   0.0050000
        k(   11) = (   0.0000000   0.0000000   0.0980392), wk =   0.0050000
        k(   12) = (   0.0000000   0.0000000   0.1078431), wk =   0.0050000
        k(   13) = (   0.0000000   0.0000000   0.1176471), wk =   0.0050000
        k(   14) = (   0.0000000   0.0000000   0.1274510), wk =   0.0050000
        k(   15) = (   0.0000000   0.0000000   0.1372549), wk =   0.0050000
        k(   16) = (   0.0000000   0.0000000   0.1470588), wk =   0.0050000
        k(   17) = (   0.0000000   0.0000000   0.1568627), wk =   0.0050000
        k(   18) = (   0.0000000   0.0000000   0.1666667), wk =   0.0050000
        k(   19) = (   0.0000000   0.0000000   0.1764706), wk =   0.0050000
        k(   20) = (   0.0000000   0.0000000   0.1862745), wk =   0.0050000
        k(   21) = (   0.0000000   0.0000000   0.1960784), wk =   0.0050000
        k(   22) = (   0.0000000   0.0000000   0.2058824), wk =   0.0050000
        k(   23) = (   0.0000000   0.0000000   0.2156863), wk =   0.0050000
        k(   24) = (   0.0000000   0.0000000   0.2254902), wk =   0.0050000
        k(   25) = (   0.0000000   0.0000000   0.2352941), wk =   0.0050000
        k(   26) = (   0.0000000   0.0000000   0.2450980), wk =   0.0050000
        k(   27) = (   0.0000000   0.0000000   0.2549020), wk =   0.0050000
        k(   28) = (   0.0000000   0.0000000   0.2647059), wk =   0.0050000
        k(   29) = (   0.0000000   0.0000000   0.2745098), wk =   0.0050000
        k(   30) = (   0.0000000   0.0000000   0.2843137), wk =   0.0050000
        k(   31) = (   0.0000000   0.0000000   0.2941176), wk =   0.0050000
        k(   32) = (   0.0000000   0.0000000   0.3039216), wk =   0.0050000
        k(   33) = (   0.0000000   0.0000000   0.3137255), wk =   0.0050000
        k(   34) = (   0.0000000   0.0000000   0.3235294), wk =   0.0050000
        k(   35) = (   0.0000000   0.0000000   0.3333333), wk =   0.0050000
        k(   36) = (   0.0000000   0.0000000   0.3431373), wk =   0.0050000
        k(   37) = (   0.0000000   0.0000000   0.3529412), wk =   0.0050000
        k(   38) = (   0.0000000   0.0000000   0.3627451), wk =   0.0050000
        k(   39) = (   0.0000000   0.0000000   0.3725490), wk =   0.0050000
        k(   40) = (   0.0000000   0.0000000   0.3823529), wk =   0.0050000
        k(   41) = (   0.0000000   0.0000000   0.3921569), wk =   0.0050000
        k(   42) = (   0.0000000   0.0000000   0.4019608), wk =   0.0050000
        k(   43) = (   0.0000000   0.0000000   0.4117647), wk =   0.0050000
        k(   44) = (   0.0000000   0.0000000   0.4215686), wk =   0.0050000
        k(   45) = (   0.0000000   0.0000000   0.4313725), wk =   0.0050000
        k(   46) = (   0.0000000   0.0000000   0.4411765), wk =   0.0050000
        k(   47) = (   0.0000000   0.0000000   0.4509804), wk =   0.0050000
        k(   48) = (   0.0000000   0.0000000   0.4607843), wk =   0.0050000
        k(   49) = (   0.0000000   0.0000000   0.4705882), wk =   0.0050000
        k(   50) = (   0.0000000   0.0000000   0.4803922), wk =   0.0050000
        k(   51) = (   0.0000000   0.0000000   0.4901961), wk =   0.0050000
        k(   52) = (   0.0000000   0.0000000   0.5000000), wk =   0.0050000
        k(   53) = (   0.0057839   0.0000000   0.4971080), wk =   0.0050000
        k(   54) = (   0.0115678   0.0000000   0.4942159), wk =   0.0050000
        k(   55) = (   0.0173518   0.0000000   0.4913239), wk =   0.0050000
        k(   56) = (   0.0231357   0.0000000   0.4884319), wk =   0.0050000
        k(   57) = (   0.0289196   0.0000000   0.4855399), wk =   0.0050000
        k(   58) = (   0.0347035   0.0000000   0.4826478), wk =   0.0050000
        k(   59) = (   0.0404875   0.0000000   0.4797558), wk =   0.0050000
        k(   60) = (   0.0462714   0.0000000   0.4768638), wk =   0.0050000
        k(   61) = (   0.0520553   0.0000000   0.4739718), wk =   0.0050000
        k(   62) = (   0.0578392   0.0000000   0.4710797), wk =   0.0050000
        k(   63) = (   0.0636232   0.0000000   0.4681877), wk =   0.0050000
        k(   64) = (   0.0694071   0.0000000   0.4652957), wk =   0.0050000
        k(   65) = (   0.0751910   0.0000000   0.4624037), wk =   0.0050000
        k(   66) = (   0.0809749   0.0000000   0.4595116), wk =   0.0050000
        k(   67) = (   0.0867589   0.0000000   0.4566196), wk =   0.0050000
        k(   68) = (   0.0925428   0.0000000   0.4537276), wk =   0.0050000
        k(   69) = (   0.0983267   0.0000000   0.4508356), wk =   0.0050000
        k(   70) = (   0.1041106   0.0000000   0.4479435), wk =   0.0050000
        k(   71) = (   0.1098946   0.0000000   0.4450515), wk =   0.0050000
        k(   72) = (   0.1156785   0.0000000   0.4421595), wk =   0.0050000
        k(   73) = (   0.1214624   0.0000000   0.4392675), wk =   0.0050000
        k(   74) = (   0.1272463   0.0000000   0.4363754), wk =   0.0050000
        k(   75) = (   0.1330303   0.0000000   0.4334834), wk =   0.0050000
        k(   76) = (   0.1388142   0.0000000   0.4305914), wk =   0.0050000
        k(   77) = (   0.1445981   0.0000000   0.4276994), wk =   0.0050000
        k(   78) = (   0.1503820   0.0000000   0.4248073), wk =   0.0050000
        k(   79) = (   0.1561659   0.0000000   0.4219153), wk =   0.0050000
        k(   80) = (   0.1619499   0.0000000   0.4190233), wk =   0.0050000
        k(   81) = (   0.1677338   0.0000000   0.4161313), wk =   0.0050000
        k(   82) = (   0.1735177   0.0000000   0.4132392), wk =   0.0050000
        k(   83) = (   0.1793016   0.0000000   0.4103472), wk =   0.0050000
        k(   84) = (   0.1850856   0.0000000   0.4074552), wk =   0.0050000
        k(   85) = (   0.1908695   0.0000000   0.4045632), wk =   0.0050000
        k(   86) = (   0.1966534   0.0000000   0.4016711), wk =   0.0050000
        k(   87) = (   0.2024373   0.0000000   0.3987791), wk =   0.0050000
        k(   88) = (   0.2082213   0.0000000   0.3958871), wk =   0.0050000
        k(   89) = (   0.2140052   0.0000000   0.3929951), wk =   0.0050000
        k(   90) = (   0.2197891   0.0000000   0.3901030), wk =   0.0050000
        k(   91) = (   0.2255730   0.0000000   0.3872110), wk =   0.0050000
        k(   92) = (   0.2313570   0.0000000   0.3843190), wk =   0.0050000
        k(   93) = (   0.2371409   0.0000000   0.3814270), wk =   0.0050000
        k(   94) = (   0.2429248   0.0000000   0.3785349), wk =   0.0050000
        k(   95) = (   0.2487087   0.0000000   0.3756429), wk =   0.0050000
        k(   96) = (   0.2544927   0.0000000   0.3727509), wk =   0.0050000
        k(   97) = (   0.2602766   0.0000000   0.3698589), wk =   0.0050000
        k(   98) = (   0.2660605   0.0000000   0.3669668), wk =   0.0050000
        k(   99) = (   0.2718444   0.0000000   0.3640748), wk =   0.0050000
        k(  100) = (   0.2776284   0.0000000   0.3611828), wk =   0.0050000
        k(  101) = (   0.2834123   0.0000000   0.3582908), wk =   0.0050000
        k(  102) = (   0.2891962   0.0000000   0.3553987), wk =   0.0050000
        k(  103) = (   0.2949801   0.0000000   0.3525067), wk =   0.0050000
        k(  104) = (   0.3007641   0.0000000   0.3496147), wk =   0.0050000
        k(  105) = (   0.3065480   0.0000000   0.3467227), wk =   0.0050000
        k(  106) = (   0.3123319   0.0000000   0.3438306), wk =   0.0050000
        k(  107) = (   0.3181158   0.0000000   0.3409386), wk =   0.0050000
        k(  108) = (   0.3238997   0.0000000   0.3380466), wk =   0.0050000
        k(  109) = (   0.3296837   0.0000000   0.3351546), wk =   0.0050000
        k(  110) = (   0.3354676   0.0000000   0.3322625), wk =   0.0050000
        k(  111) = (   0.3412515   0.0000000   0.3293705), wk =   0.0050000
        k(  112) = (   0.3470354   0.0000000   0.3264785), wk =   0.0050000
        k(  113) = (   0.3528194   0.0000000   0.3235865), wk =   0.0050000
        k(  114) = (   0.3586033   0.0000000   0.3206944), wk =   0.0050000
        k(  115) = (   0.3643872   0.0000000   0.3178024), wk =   0.0050000
        k(  116) = (   0.3701711   0.0000000   0.3149104), wk =   0.0050000
        k(  117) = (   0.3759551   0.0000000   0.3120184), wk =   0.0050000
        k(  118) = (   0.3817390   0.0000000   0.3091263), wk =   0.0050000
        k(  119) = (   0.3875229   0.0000000   0.3062343), wk =   0.0050000
        k(  120) = (   0.3933068   0.0000000   0.3033423), wk =   0.0050000
        k(  121) = (   0.3990908   0.0000000   0.3004503), wk =   0.0050000
        k(  122) = (   0.4048747   0.0000000   0.2975582), wk =   0.0050000
        k(  123) = (   0.4106586   0.0000000   0.2946662), wk =   0.0050000
        k(  124) = (   0.4164425   0.0000000   0.2917742), wk =   0.0050000
        k(  125) = (   0.4222265   0.0000000   0.2888822), wk =   0.0050000
        k(  126) = (   0.4280104   0.0000000   0.2859901), wk =   0.0050000
        k(  127) = (   0.4337943   0.0000000   0.2830981), wk =   0.0050000
        k(  128) = (   0.4395782   0.0000000   0.2802061), wk =   0.0050000
        k(  129) = (   0.4453622   0.0000000   0.2773141), wk =   0.0050000
        k(  130) = (   0.4511461   0.0000000   0.2744220), wk =   0.0050000
        k(  131) = (   0.4569300   0.0000000   0.2715300), wk =   0.0050000
        k(  132) = (   0.4585865   0.0000000   0.2610865), wk =   0.0050000
        k(  133) = (   0.4602431   0.0000000   0.2506431), wk =   0.0050000
        k(  134) = (   0.4618996   0.0000000   0.2401996), wk =   0.0050000
        k(  135) = (   0.4635562   0.0000000   0.2297562), wk =   0.0050000
        k(  136) = (   0.4652127   0.0000000   0.2193127), wk =   0.0050000
        k(  137) = (   0.4668692   0.0000000   0.2088692), wk =   0.0050000
        k(  138) = (   0.4685258   0.0000000   0.1984258), wk =   0.0050000
        k(  139) = (   0.4701823   0.0000000   0.1879823), wk =   0.0050000
        k(  140) = (   0.4718388   0.0000000   0.1775388), wk =   0.0050000
        k(  141) = (   0.4734954   0.0000000   0.1670954), wk =   0.0050000
        k(  142) = (   0.4751519   0.0000000   0.1566519), wk =   0.0050000
        k(  143) = (   0.4768085   0.0000000   0.1462085), wk =   0.0050000
        k(  144) = (   0.4784650   0.0000000   0.1357650), wk =   0.0050000
        k(  145) = (   0.4801215   0.0000000   0.1253215), wk =   0.0050000
        k(  146) = (   0.4817781   0.0000000   0.1148781), wk =   0.0050000
        k(  147) = (   0.4834346   0.0000000   0.1044346), wk =   0.0050000
        k(  148) = (   0.4850912   0.0000000   0.0939912), wk =   0.0050000
        k(  149) = (   0.4867477   0.0000000   0.0835477), wk =   0.0050000
        k(  150) = (   0.4884042   0.0000000   0.0731042), wk =   0.0050000
        k(  151) = (   0.4900608   0.0000000   0.0626608), wk =   0.0050000
        k(  152) = (   0.4917173   0.0000000   0.0522173), wk =   0.0050000
        k(  153) = (   0.4933738   0.0000000   0.0417738), wk =   0.0050000
        k(  154) = (   0.4950304   0.0000000   0.0313304), wk =   0.0050000
        k(  155) = (   0.4966869   0.0000000   0.0208869), wk =   0.0050000
        k(  156) = (   0.4983435   0.0000000   0.0104435), wk =   0.0050000
        k(  157) = (   0.5000000   0.0000000   0.0000000), wk =   0.0050000
        k(  158) = (   0.5016565   0.0000000  -0.0104435), wk =   0.0050000
        k(  159) = (   0.5033131   0.0000000  -0.0208869), wk =   0.0050000
        k(  160) = (   0.5049696   0.0000000  -0.0313304), wk =   0.0050000
        k(  161) = (   0.5066262   0.0000000  -0.0417738), wk =   0.0050000
        k(  162) = (   0.5082827   0.0000000  -0.0522173), wk =   0.0050000
        k(  163) = (   0.5099392   0.0000000  -0.0626608), wk =   0.0050000
        k(  164) = (   0.5115958   0.0000000  -0.0731042), wk =   0.0050000
        k(  165) = (   0.5132523   0.0000000  -0.0835477), wk =   0.0050000
        k(  166) = (   0.5149088   0.0000000  -0.0939912), wk =   0.0050000
        k(  167) = (   0.5165654   0.0000000  -0.1044346), wk =   0.0050000
        k(  168) = (   0.5182219   0.0000000  -0.1148781), wk =   0.0050000
        k(  169) = (   0.5198785   0.0000000  -0.1253215), wk =   0.0050000
        k(  170) = (   0.5215350   0.0000000  -0.1357650), wk =   0.0050000
        k(  171) = (   0.5231915   0.0000000  -0.1462085), wk =   0.0050000
        k(  172) = (   0.5248481   0.0000000  -0.1566519), wk =   0.0050000
        k(  173) = (   0.5265046   0.0000000  -0.1670954), wk =   0.0050000
        k(  174) = (   0.5281612   0.0000000  -0.1775388), wk =   0.0050000
        k(  175) = (   0.5298177   0.0000000  -0.1879823), wk =   0.0050000
        k(  176) = (   0.5314742   0.0000000  -0.1984258), wk =   0.0050000
        k(  177) = (   0.5331308   0.0000000  -0.2088692), wk =   0.0050000
        k(  178) = (   0.5347873   0.0000000  -0.2193127), wk =   0.0050000
        k(  179) = (   0.5364438   0.0000000  -0.2297562), wk =   0.0050000
        k(  180) = (   0.5381004   0.0000000  -0.2401996), wk =   0.0050000
        k(  181) = (   0.5397569   0.0000000  -0.2506431), wk =   0.0050000
        k(  182) = (   0.5414135   0.0000000  -0.2610865), wk =   0.0050000
        k(  183) = (   0.5430700   0.0000000  -0.2715300), wk =   0.0050000
        k(  184) = (   0.5421633   0.0048098  -0.2682184), wk =   0.0050000
        k(  185) = (   0.5412565   0.0096196  -0.2649068), wk =   0.0050000
        k(  186) = (   0.5403498   0.0144294  -0.2615953), wk =   0.0050000
        k(  187) = (   0.5394431   0.0192392  -0.2582837), wk =   0.0050000
        k(  188) = (   0.5385363   0.0240489  -0.2549721), wk =   0.0050000
        k(  189) = (   0.5376296   0.0288587  -0.2516605), wk =   0.0050000
        k(  190) = (   0.5367228   0.0336685  -0.2483489), wk =   0.0050000
        k(  191) = (   0.5358161   0.0384783  -0.2450374), wk =   0.0050000
        k(  192) = (   0.5349094   0.0432881  -0.2417258), wk =   0.0050000
        k(  193) = (   0.5340026   0.0480979  -0.2384142), wk =   0.0050000
        k(  194) = (   0.5330959   0.0529077  -0.2351026), wk =   0.0050000
        k(  195) = (   0.5321892   0.0577175  -0.2317911), wk =   0.0050000
        k(  196) = (   0.5312824   0.0625273  -0.2284795), wk =   0.0050000
        k(  197) = (   0.5303757   0.0673371  -0.2251679), wk =   0.0050000
        k(  198) = (   0.5294689   0.0721468  -0.2218563), wk =   0.0050000
        k(  199) = (   0.5285622   0.0769566  -0.2185447), wk =   0.0050000
        k(  200) = (   0.5276555   0.0817664  -0.2152332), wk =   0.0050000
        k(  201) = (   0.5267487   0.0865762  -0.2119216), wk =   0.0050000
        k(  202) = (   0.5258420   0.0913860  -0.2086100), wk =   0.0050000
        k(  203) = (   0.5249353   0.0961958  -0.2052984), wk =   0.0050000
        k(  204) = (   0.5240285   0.1010056  -0.2019868), wk =   0.0050000
        k(  205) = (   0.5231218   0.1058154  -0.1986753), wk =   0.0050000
        k(  206) = (   0.5222151   0.1106252  -0.1953637), wk =   0.0050000
        k(  207) = (   0.5213083   0.1154349  -0.1920521), wk =   0.0050000
        k(  208) = (   0.5204016   0.1202447  -0.1887405), wk =   0.0050000
        k(  209) = (   0.5194948   0.1250545  -0.1854289), wk =   0.0050000
        k(  210) = (   0.5185881   0.1298643  -0.1821174), wk =   0.0050000
        k(  211) = (   0.5176814   0.1346741  -0.1788058), wk =   0.0050000
        k(  212) = (   0.5167746   0.1394839  -0.1754942), wk =   0.0050000
        k(  213) = (   0.5158679   0.1442937  -0.1721826), wk =   0.0050000
        k(  214) = (   0.5149612   0.1491035  -0.1688711), wk =   0.0050000
        k(  215) = (   0.5140544   0.1539133  -0.1655595), wk =   0.0050000
        k(  216) = (   0.5131477   0.1587231  -0.1622479), wk =   0.0050000
        k(  217) = (   0.5122409   0.1635328  -0.1589363), wk =   0.0050000
        k(  218) = (   0.5113342   0.1683426  -0.1556247), wk =   0.0050000
        k(  219) = (   0.5104275   0.1731524  -0.1523132), wk =   0.0050000
        k(  220) = (   0.5095207   0.1779622  -0.1490016), wk =   0.0050000
        k(  221) = (   0.5086140   0.1827720  -0.1456900), wk =   0.0050000
        k(  222) = (   0.5077073   0.1875818  -0.1423784), wk =   0.0050000
        k(  223) = (   0.5068005   0.1923916  -0.1390668), wk =   0.0050000
        k(  224) = (   0.5058938   0.1972014  -0.1357553), wk =   0.0050000
        k(  225) = (   0.5049871   0.2020112  -0.1324437), wk =   0.0050000
        k(  226) = (   0.5040803   0.2068209  -0.1291321), wk =   0.0050000
        k(  227) = (   0.5031736   0.2116307  -0.1258205), wk =   0.0050000
        k(  228) = (   0.5022668   0.2164405  -0.1225089), wk =   0.0050000
        k(  229) = (   0.5013601   0.2212503  -0.1191974), wk =   0.0050000
        k(  230) = (   0.5004534   0.2260601  -0.1158858), wk =   0.0050000
        k(  231) = (   0.4995466   0.2308699  -0.1125742), wk =   0.0050000
        k(  232) = (   0.4986399   0.2356797  -0.1092626), wk =   0.0050000
        k(  233) = (   0.4977332   0.2404895  -0.1059511), wk =   0.0050000
        k(  234) = (   0.4968264   0.2452993  -0.1026395), wk =   0.0050000
        k(  235) = (   0.4959197   0.2501091  -0.0993279), wk =   0.0050000
        k(  236) = (   0.4950129   0.2549188  -0.0960163), wk =   0.0050000
        k(  237) = (   0.4941062   0.2597286  -0.0927047), wk =   0.0050000
        k(  238) = (   0.4931995   0.2645384  -0.0893932), wk =   0.0050000
        k(  239) = (   0.4922927   0.2693482  -0.0860816), wk =   0.0050000
        k(  240) = (   0.4913860   0.2741580  -0.0827700), wk =   0.0050000
        k(  241) = (   0.4904793   0.2789678  -0.0794584), wk =   0.0050000
        k(  242) = (   0.4895725   0.2837776  -0.0761468), wk =   0.0050000
        k(  243) = (   0.4886658   0.2885874  -0.0728353), wk =   0.0050000
        k(  244) = (   0.4877591   0.2933972  -0.0695237), wk =   0.0050000
        k(  245) = (   0.4868523   0.2982069  -0.0662121), wk =   0.0050000
        k(  246) = (   0.4859456   0.3030167  -0.0629005), wk =   0.0050000
        k(  247) = (   0.4850388   0.3078265  -0.0595889), wk =   0.0050000
        k(  248) = (   0.4841321   0.3126363  -0.0562774), wk =   0.0050000
        k(  249) = (   0.4832254   0.3174461  -0.0529658), wk =   0.0050000
        k(  250) = (   0.4823186   0.3222559  -0.0496542), wk =   0.0050000
        k(  251) = (   0.4814119   0.3270657  -0.0463426), wk =   0.0050000
        k(  252) = (   0.4805052   0.3318755  -0.0430311), wk =   0.0050000
        k(  253) = (   0.4795984   0.3366853  -0.0397195), wk =   0.0050000
        k(  254) = (   0.4786917   0.3414951  -0.0364079), wk =   0.0050000
        k(  255) = (   0.4777849   0.3463048  -0.0330963), wk =   0.0050000
        k(  256) = (   0.4768782   0.3511146  -0.0297847), wk =   0.0050000
        k(  257) = (   0.4759715   0.3559244  -0.0264732), wk =   0.0050000
        k(  258) = (   0.4750647   0.3607342  -0.0231616), wk =   0.0050000
        k(  259) = (   0.4741580   0.3655440  -0.0198500), wk =   0.0050000
        k(  260) = (   0.4732513   0.3703538  -0.0165384), wk =   0.0050000
        k(  261) = (   0.4723445   0.3751636  -0.0132268), wk =   0.0050000
        k(  262) = (   0.4714378   0.3799734  -0.0099153), wk =   0.0050000
        k(  263) = (   0.4705311   0.3847832  -0.0066037), wk =   0.0050000
        k(  264) = (   0.4696243   0.3895929  -0.0032921), wk =   0.0050000
        k(  265) = (   0.4687176   0.3944027   0.0000195), wk =   0.0050000
        k(  266) = (   0.4678108   0.3992125   0.0033311), wk =   0.0050000
        k(  267) = (   0.4669041   0.4040223   0.0066426), wk =   0.0050000
        k(  268) = (   0.4659974   0.4088321   0.0099542), wk =   0.0050000
        k(  269) = (   0.4650906   0.4136419   0.0132658), wk =   0.0050000
        k(  270) = (   0.4641839   0.4184517   0.0165774), wk =   0.0050000
        k(  271) = (   0.4632772   0.4232615   0.0198889), wk =   0.0050000
        k(  272) = (   0.4623704   0.4280713   0.0232005), wk =   0.0050000
        k(  273) = (   0.4614637   0.4328811   0.0265121), wk =   0.0050000
        k(  274) = (   0.4605569   0.4376908   0.0298237), wk =   0.0050000
        k(  275) = (   0.4596502   0.4425006   0.0331353), wk =   0.0050000
        k(  276) = (   0.4587435   0.4473104   0.0364468), wk =   0.0050000
        k(  277) = (   0.4578367   0.4521202   0.0397584), wk =   0.0050000
        k(  278) = (   0.4569300   0.4569300   0.0430700), wk =   0.0050000
        k(  279) = (   0.4531847   0.4531847   0.0427170), wk =   0.0050000
        k(  280) = (   0.4494393   0.4494393   0.0423639), wk =   0.0050000
        k(  281) = (   0.4456940   0.4456940   0.0420109), wk =   0.0050000
        k(  282) = (   0.4419487   0.4419487   0.0416579), wk =   0.0050000
        k(  283) = (   0.4382034   0.4382034   0.0413048), wk =   0.0050000
        k(  284) = (   0.4344580   0.4344580   0.0409518), wk =   0.0050000
        k(  285) = (   0.4307127   0.4307127   0.0405988), wk =   0.0050000
        k(  286) = (   0.4269674   0.4269674   0.0402457), wk =   0.0050000
        k(  287) = (   0.4232220   0.4232220   0.0398927), wk =   0.0050000
        k(  288) = (   0.4194767   0.4194767   0.0395397), wk =   0.0050000
        k(  289) = (   0.4157314   0.4157314   0.0391866), wk =   0.0050000
        k(  290) = (   0.4119861   0.4119861   0.0388336), wk =   0.0050000
        k(  291) = (   0.4082407   0.4082407   0.0384806), wk =   0.0050000
        k(  292) = (   0.4044954   0.4044954   0.0381275), wk =   0.0050000
        k(  293) = (   0.4007501   0.4007501   0.0377745), wk =   0.0050000
        k(  294) = (   0.3970048   0.3970048   0.0374215), wk =   0.0050000
        k(  295) = (   0.3932594   0.3932594   0.0370684), wk =   0.0050000
        k(  296) = (   0.3895141   0.3895141   0.0367154), wk =   0.0050000
        k(  297) = (   0.3857688   0.3857688   0.0363624), wk =   0.0050000
        k(  298) = (   0.3820234   0.3820234   0.0360093), wk =   0.0050000
        k(  299) = (   0.3782781   0.3782781   0.0356563), wk =   0.0050000
        k(  300) = (   0.3745328   0.3745328   0.0353033), wk =   0.0050000
        k(  301) = (   0.3707875   0.3707875   0.0349502), wk =   0.0050000
        k(  302) = (   0.3670421   0.3670421   0.0345972), wk =   0.0050000
        k(  303) = (   0.3632968   0.3632968   0.0342442), wk =   0.0050000
        k(  304) = (   0.3595515   0.3595515   0.0338911), wk =   0.0050000
        k(  305) = (   0.3558061   0.3558061   0.0335381), wk =   0.0050000
        k(  306) = (   0.3520608   0.3520608   0.0331851), wk =   0.0050000
        k(  307) = (   0.3483155   0.3483155   0.0328320), wk =   0.0050000
        k(  308) = (   0.3445702   0.3445702   0.0324790), wk =   0.0050000
        k(  309) = (   0.3408248   0.3408248   0.0321260), wk =   0.0050000
        k(  310) = (   0.3370795   0.3370795   0.0317730), wk =   0.0050000
        k(  311) = (   0.3333342   0.3333342   0.0314199), wk =   0.0050000
        k(  312) = (   0.3295889   0.3295889   0.0310669), wk =   0.0050000
        k(  313) = (   0.3258435   0.3258435   0.0307139), wk =   0.0050000
        k(  314) = (   0.3220982   0.3220982   0.0303608), wk =   0.0050000
        k(  315) = (   0.3183529   0.3183529   0.0300078), wk =   0.0050000
        k(  316) = (   0.3146075   0.3146075   0.0296548), wk =   0.0050000
        k(  317) = (   0.3108622   0.3108622   0.0293017), wk =   0.0050000
        k(  318) = (   0.3071169   0.3071169   0.0289487), wk =   0.0050000
        k(  319) = (   0.3033716   0.3033716   0.0285957), wk =   0.0050000
        k(  320) = (   0.2996262   0.2996262   0.0282426), wk =   0.0050000
        k(  321) = (   0.2958809   0.2958809   0.0278896), wk =   0.0050000
        k(  322) = (   0.2921356   0.2921356   0.0275366), wk =   0.0050000
        k(  323) = (   0.2883902   0.2883902   0.0271835), wk =   0.0050000
        k(  324) = (   0.2846449   0.2846449   0.0268305), wk =   0.0050000
        k(  325) = (   0.2808996   0.2808996   0.0264775), wk =   0.0050000
        k(  326) = (   0.2771543   0.2771543   0.0261244), wk =   0.0050000
        k(  327) = (   0.2734089   0.2734089   0.0257714), wk =   0.0050000
        k(  328) = (   0.2696636   0.2696636   0.0254184), wk =   0.0050000
        k(  329) = (   0.2659183   0.2659183   0.0250653), wk =   0.0050000
        k(  330) = (   0.2621730   0.2621730   0.0247123), wk =   0.0050000
        k(  331) = (   0.2584276   0.2584276   0.0243593), wk =   0.0050000
        k(  332) = (   0.2546823   0.2546823   0.0240062), wk =   0.0050000
        k(  333) = (   0.2509370   0.2509370   0.0236532), wk =   0.0050000
        k(  334) = (   0.2471916   0.2471916   0.0233002), wk =   0.0050000
        k(  335) = (   0.2434463   0.2434463   0.0229471), wk =   0.0050000
        k(  336) = (   0.2397010   0.2397010   0.0225941), wk =   0.0050000
        k(  337) = (   0.2359557   0.2359557   0.0222411), wk =   0.0050000
        k(  338) = (   0.2322103   0.2322103   0.0218880), wk =   0.0050000
        k(  339) = (   0.2284650   0.2284650   0.0215350), wk =   0.0050000
        k(  340) = (   0.2247197   0.2247197   0.0211820), wk =   0.0050000
        k(  341) = (   0.2209743   0.2209743   0.0208289), wk =   0.0050000
        k(  342) = (   0.2172290   0.2172290   0.0204759), wk =   0.0050000
        k(  343) = (   0.2134837   0.2134837   0.0201229), wk =   0.0050000
        k(  344) = (   0.2097384   0.2097384   0.0197698), wk =   0.0050000
        k(  345) = (   0.2059930   0.2059930   0.0194168), wk =   0.0050000
        k(  346) = (   0.2022477   0.2022477   0.0190638), wk =   0.0050000
        k(  347) = (   0.1985024   0.1985024   0.0187107), wk =   0.0050000
        k(  348) = (   0.1947570   0.1947570   0.0183577), wk =   0.0050000
        k(  349) = (   0.1910117   0.1910117   0.0180047), wk =   0.0050000
        k(  350) = (   0.1872664   0.1872664   0.0176516), wk =   0.0050000
        k(  351) = (   0.1835211   0.1835211   0.0172986), wk =   0.0050000
        k(  352) = (   0.1797757   0.1797757   0.0169456), wk =   0.0050000
        k(  353) = (   0.1760304   0.1760304   0.0165925), wk =   0.0050000
        k(  354) = (   0.1722851   0.1722851   0.0162395), wk =   0.0050000
        k(  355) = (   0.1685398   0.1685398   0.0158865), wk =   0.0050000
        k(  356) = (   0.1647944   0.1647944   0.0155334), wk =   0.0050000
        k(  357) = (   0.1610491   0.1610491   0.0151804), wk =   0.0050000
        k(  358) = (   0.1573038   0.1573038   0.0148274), wk =   0.0050000
        k(  359) = (   0.1535584   0.1535584   0.0144743), wk =   0.0050000
        k(  360) = (   0.1498131   0.1498131   0.0141213), wk =   0.0050000
        k(  361) = (   0.1460678   0.1460678   0.0137683), wk =   0.0050000
        k(  362) = (   0.1423225   0.1423225   0.0134152), wk =   0.0050000
        k(  363) = (   0.1385771   0.1385771   0.0130622), wk =   0.0050000
        k(  364) = (   0.1348318   0.1348318   0.0127092), wk =   0.0050000
        k(  365) = (   0.1310865   0.1310865   0.0123561), wk =   0.0050000
        k(  366) = (   0.1273411   0.1273411   0.0120031), wk =   0.0050000
        k(  367) = (   0.1235958   0.1235958   0.0116501), wk =   0.0050000
        k(  368) = (   0.1198505   0.1198505   0.0112970), wk =   0.0050000
        k(  369) = (   0.1161052   0.1161052   0.0109440), wk =   0.0050000
        k(  370) = (   0.1123598   0.1123598   0.0105910), wk =   0.0050000
        k(  371) = (   0.1086145   0.1086145   0.0102380), wk =   0.0050000
        k(  372) = (   0.1048692   0.1048692   0.0098849), wk =   0.0050000
        k(  373) = (   0.1011239   0.1011239   0.0095319), wk =   0.0050000
        k(  374) = (   0.0973785   0.0973785   0.0091789), wk =   0.0050000
        k(  375) = (   0.0936332   0.0936332   0.0088258), wk =   0.0050000
        k(  376) = (   0.0898879   0.0898879   0.0084728), wk =   0.0050000
        k(  377) = (   0.0861425   0.0861425   0.0081198), wk =   0.0050000
        k(  378) = (   0.0823972   0.0823972   0.0077667), wk =   0.0050000
        k(  379) = (   0.0786519   0.0786519   0.0074137), wk =   0.0050000
        k(  380) = (   0.0749066   0.0749066   0.0070607), wk =   0.0050000
        k(  381) = (   0.0711612   0.0711612   0.0067076), wk =   0.0050000
        k(  382) = (   0.0674159   0.0674159   0.0063546), wk =   0.0050000
        k(  383) = (   0.0636706   0.0636706   0.0060016), wk =   0.0050000
        k(  384) = (   0.0599252   0.0599252   0.0056485), wk =   0.0050000
        k(  385) = (   0.0561799   0.0561799   0.0052955), wk =   0.0050000
        k(  386) = (   0.0524346   0.0524346   0.0049425), wk =   0.0050000
        k(  387) = (   0.0486893   0.0486893   0.0045894), wk =   0.0050000
        k(  388) = (   0.0449439   0.0449439   0.0042364), wk =   0.0050000
        k(  389) = (   0.0411986   0.0411986   0.0038834), wk =   0.0050000
        k(  390) = (   0.0374533   0.0374533   0.0035303), wk =   0.0050000
        k(  391) = (   0.0337080   0.0337080   0.0031773), wk =   0.0050000
        k(  392) = (   0.0299626   0.0299626   0.0028243), wk =   0.0050000
        k(  393) = (   0.0262173   0.0262173   0.0024712), wk =   0.0050000
        k(  394) = (   0.0224720   0.0224720   0.0021182), wk =   0.0050000
        k(  395) = (   0.0187266   0.0187266   0.0017652), wk =   0.0050000
        k(  396) = (   0.0149813   0.0149813   0.0014121), wk =   0.0050000
        k(  397) = (   0.0112360   0.0112360   0.0010591), wk =   0.0050000
        k(  398) = (   0.0074907   0.0074907   0.0007061), wk =   0.0050000
        k(  399) = (   0.0037453   0.0037453   0.0003530), wk =   0.0050000
        k(  400) = (   0.0000000   0.0000000   0.0000000), wk =   0.0050000

     Dense  grid:   504019 G-vectors     FFT dimensions: (  75,  75, 200)

     Smooth grid:   178409 G-vectors     FFT dimensions: (  54,  54, 144)

     Dynamical RAM for                 wfc:      29.24 MB

     Dynamical RAM for     wfc (w. buffer):      29.24 MB

     Dynamical RAM for           str. fact:      15.38 MB

     Dynamical RAM for           local pot:       0.00 MB

     Dynamical RAM for          nlocal pot:      97.94 MB

     Dynamical RAM for                qrad:       2.87 MB

     Dynamical RAM for          rho,v,vnew:      48.82 MB

     Dynamical RAM for           G-vectors:      30.20 MB

     Dynamical RAM for          h,s,v(r/c):       1.35 MB

     Dynamical RAM for          <psi|beta>:       0.38 MB

     Dynamical RAM for                 psi:      58.49 MB

     Dynamical RAM for                hpsi:      58.49 MB

     Dynamical RAM for                spsi:      58.49 MB

     Dynamical RAM for      wfcinit/wfcrot:      76.46 MB

     Dynamical RAM for           addusdens:    1492.00 MB

     Estimated static dynamical RAM per process >     290.44 MB

     Estimated max dynamical RAM per process >       1.74 GB

     Check: negative core charge=   -0.000001

     The potential is recalculated from file :
     ./out/NbP.supercell.save/charge-density


     negative rho (up, down):  7.067E-04 0.000E+00
     Starting wfcs are  112 randomized atomic wfcs
     Checking if some PAW data can be deallocated... 

     Band Structure Calculation
     Davidson diagonalization with overlap

     Computing kpt #:     1  of   400
     c_bands:  1 eigenvalues not converged
     total cpu time spent up to now is       58.9 secs

     Computing kpt #:     2  of   400
     c_bands:  1 eigenvalues not converged
     total cpu time spent up to now is      112.7 secs

     Computing kpt #:     3  of   400
     c_bands:  1 eigenvalues not converged
     total cpu time spent up to now is      168.2 secs

     Computing kpt #:     4  of   400
     c_bands:  1 eigenvalues not converged
     total cpu time spent up to now is      221.7 secs

     Computing kpt #:     5  of   400
     c_bands:  1 eigenvalues not converged
     total cpu time spent up to now is      274.4 secs

     Computing kpt #:     6  of   400
     c_bands:  1 eigenvalues not converged
     total cpu time spent up to now is      327.3 secs

     Computing kpt #:     7  of   400
     c_bands:  1 eigenvalues not converged
     total cpu time spent up to now is      383.0 secs

     Computing kpt #:     8  of   400
     c_bands:  1 eigenvalues not converged
     total cpu time spent up to now is      437.7 secs

     Computing kpt #:     9  of   400
     c_bands:  1 eigenvalues not converged
     total cpu time spent up to now is      490.7 secs

     Computing kpt #:    10  of   400
     c_bands:  1 eigenvalues not converged
     total cpu time spent up to now is      543.5 secs

     Computing kpt #:    11  of   400
     c_bands:  1 eigenvalues not converged
     total cpu time spent up to now is      596.1 secs

     Computing kpt #:    12  of   400
     c_bands:  1 eigenvalues not converged
     total cpu time spent up to now is      651.2 secs

     Computing kpt #:    13  of   400
     c_bands:  1 eigenvalues not converged
     total cpu time spent up to now is      704.5 secs

     Computing kpt #:    14  of   400
     c_bands:  1 eigenvalues not converged
     total cpu time spent up to now is      757.3 secs

     Computing kpt #:    15  of   400
     c_bands:  1 eigenvalues not converged
     total cpu time spent up to now is      813.2 secs

     Computing kpt #:    16  of   400
     c_bands:  1 eigenvalues not converged
     total cpu time spent up to now is      866.4 secs

     Computing kpt #:    17  of   400
     c_bands:  1 eigenvalues not converged
     total cpu time spent up to now is      919.3 secs

     Computing kpt #:    18  of   400
     c_bands:  1 eigenvalues not converged
     total cpu time spent up to now is      972.6 secs

     Computing kpt #:    19  of   400
     c_bands:  1 eigenvalues not converged
     total cpu time spent up to now is     1025.9 secs

     Computing kpt #:    20  of   400
     c_bands:  1 eigenvalues not converged
     total cpu time spent up to now is     1078.8 secs

     Computing kpt #:    21  of   400
     c_bands:  1 eigenvalues not converged
     total cpu time spent up to now is     1131.9 secs

     Computing kpt #:    22  of   400
     c_bands:  1 eigenvalues not converged
     total cpu time spent up to now is     1186.8 secs

     Computing kpt #:    23  of   400
     c_bands:  1 eigenvalues not converged
     total cpu time spent up to now is     1239.3 secs

     Computing kpt #:    24  of   400
     c_bands:  1 eigenvalues not converged
     total cpu time spent up to now is     1292.0 secs

     Computing kpt #:    25  of   400
     c_bands:  1 eigenvalues not converged
     total cpu time spent up to now is     1344.5 secs

     Computing kpt #:    26  of   400
     c_bands:  1 eigenvalues not converged
     total cpu time spent up to now is     1399.2 secs

     Computing kpt #:    27  of   400
     c_bands:  1 eigenvalues not converged
     total cpu time spent up to now is     1454.4 secs

     Computing kpt #:    28  of   400
     c_bands:  1 eigenvalues not converged
     total cpu time spent up to now is     1506.8 secs

     Computing kpt #:    29  of   400
     c_bands:  1 eigenvalues not converged
     total cpu time spent up to now is     1559.7 secs

     Computing kpt #:    30  of   400
     c_bands:  1 eigenvalues not converged
     total cpu time spent up to now is     1612.3 secs

     Computing kpt #:    31  of   400
     c_bands:  1 eigenvalues not converged
     total cpu time spent up to now is     1664.7 secs

     Computing kpt #:    32  of   400
     c_bands:  1 eigenvalues not converged
     total cpu time spent up to now is     1719.2 secs

     Computing kpt #:    33  of   400
     c_bands:  1 eigenvalues not converged
     total cpu time spent up to now is     1772.6 secs

     Computing kpt #:    34  of   400
     c_bands:  1 eigenvalues not converged
     total cpu time spent up to now is     1825.3 secs

     Computing kpt #:    35  of   400
     c_bands:  1 eigenvalues not converged
     total cpu time spent up to now is     1880.7 secs

     Computing kpt #:    36  of   400
     c_bands:  1 eigenvalues not converged
     total cpu time spent up to now is     1933.1 secs

     Computing kpt #:    37  of   400
     c_bands:  1 eigenvalues not converged
     total cpu time spent up to now is     1985.5 secs

     Computing kpt #:    38  of   400
     c_bands:  1 eigenvalues not converged
     total cpu time spent up to now is     2038.3 secs

     Computing kpt #:    39  of   400
     c_bands:  1 eigenvalues not converged
     total cpu time spent up to now is     2090.9 secs

     Computing kpt #:    40  of   400
     c_bands:  1 eigenvalues not converged
     total cpu time spent up to now is     2143.3 secs

     Computing kpt #:    41  of   400
     c_bands:  1 eigenvalues not converged
     total cpu time spent up to now is     2198.2 secs

     Computing kpt #:    42  of   400
     c_bands:  1 eigenvalues not converged
     total cpu time spent up to now is     2250.3 secs

     Computing kpt #:    43  of   400
     c_bands:  1 eigenvalues not converged
     total cpu time spent up to now is     2302.5 secs

     Computing kpt #:    44  of   400
     c_bands:  1 eigenvalues not converged
     total cpu time spent up to now is     2355.1 secs

     Computing kpt #:    45  of   400
     c_bands:  1 eigenvalues not converged
     total cpu time spent up to now is     2409.9 secs

     Computing kpt #:    46  of   400
     c_bands:  1 eigenvalues not converged
     total cpu time spent up to now is     2462.7 secs

     Computing kpt #:    47  of   400
     c_bands:  1 eigenvalues not converged
     total cpu time spent up to now is     2517.5 secs

     Computing kpt #:    48  of   400
     c_bands:  1 eigenvalues not converged
     total cpu time spent up to now is     2569.6 secs

     Computing kpt #:    49  of   400
     c_bands:  1 eigenvalues not converged
     total cpu time spent up to now is     2622.4 secs

     Computing kpt #:    50  of   400
     c_bands:  1 eigenvalues not converged
     total cpu time spent up to now is     2674.5 secs

     Computing kpt #:    51  of   400
     c_bands:  1 eigenvalues not converged
     total cpu time spent up to now is     2729.7 secs

     Computing kpt #:    52  of   400
     c_bands:  1 eigenvalues not converged
     total cpu time spent up to now is     2782.7 secs

     Computing kpt #:    53  of   400
     c_bands:  1 eigenvalues not converged
     total cpu time spent up to now is     2835.3 secs

     Computing kpt #:    54  of   400
     c_bands:  1 eigenvalues not converged
     total cpu time spent up to now is     2890.1 secs

     Computing kpt #:    55  of   400
     c_bands:  1 eigenvalues not converged
     total cpu time spent up to now is     2942.5 secs

     Computing kpt #:    56  of   400
     c_bands:  1 eigenvalues not converged
     total cpu time spent up to now is     2995.1 secs

     Computing kpt #:    57  of   400
     c_bands:  1 eigenvalues not converged
     total cpu time spent up to now is     3047.4 secs

     Computing kpt #:    58  of   400
     c_bands:  1 eigenvalues not converged
     total cpu time spent up to now is     3100.2 secs

     Computing kpt #:    59  of   400
     c_bands:  1 eigenvalues not converged
     total cpu time spent up to now is     3152.9 secs

     Computing kpt #:    60  of   400
     c_bands:  1 eigenvalues not converged
     total cpu time spent up to now is     3205.5 secs

     Computing kpt #:    61  of   400
     c_bands:  1 eigenvalues not converged
     total cpu time spent up to now is     3260.4 secs

     Computing kpt #:    62  of   400
     c_bands:  1 eigenvalues not converged
     total cpu time spent up to now is     3313.1 secs

     Computing kpt #:    63  of   400
     c_bands:  1 eigenvalues not converged
     total cpu time spent up to now is     3365.8 secs

     Computing kpt #:    64  of   400
     c_bands:  1 eigenvalues not converged
     total cpu time spent up to now is     3418.4 secs

     Computing kpt #:    65  of   400
     c_bands:  1 eigenvalues not converged
     total cpu time spent up to now is     3472.8 secs

     Computing kpt #:    66  of   400
     c_bands:  1 eigenvalues not converged
     total cpu time spent up to now is     3528.0 secs

     Computing kpt #:    67  of   400
     c_bands:  1 eigenvalues not converged
     total cpu time spent up to now is     3580.8 secs

     Computing kpt #:    68  of   400
     total cpu time spent up to now is     3633.5 secs

     Computing kpt #:    69  of   400
     total cpu time spent up to now is     3685.5 secs

     Computing kpt #:    70  of   400
     total cpu time spent up to now is     3737.2 secs

     Computing kpt #:    71  of   400
     total cpu time spent up to now is     3789.1 secs

     Computing kpt #:    72  of   400
     total cpu time spent up to now is     3839.0 secs

     Computing kpt #:    73  of   400
     total cpu time spent up to now is     3890.6 secs

     Computing kpt #:    74  of   400
     total cpu time spent up to now is     3945.5 secs

     Computing kpt #:    75  of   400
     total cpu time spent up to now is     3995.1 secs

     Computing kpt #:    76  of   400
     total cpu time spent up to now is     4044.9 secs

     Computing kpt #:    77  of   400
     total cpu time spent up to now is     4094.8 secs

     Computing kpt #:    78  of   400
     total cpu time spent up to now is     4146.7 secs

     Computing kpt #:    79  of   400
     total cpu time spent up to now is     4196.6 secs

     Computing kpt #:    80  of   400
     total cpu time spent up to now is     4246.7 secs

     Computing kpt #:    81  of   400
     total cpu time spent up to now is     4301.0 secs

     Computing kpt #:    82  of   400
     total cpu time spent up to now is     4353.2 secs

     Computing kpt #:    83  of   400
     total cpu time spent up to now is     4405.7 secs

     Computing kpt #:    84  of   400
     total cpu time spent up to now is     4458.2 secs

     Computing kpt #:    85  of   400
     c_bands:  1 eigenvalues not converged
     total cpu time spent up to now is     4513.5 secs

     Computing kpt #:    86  of   400
     c_bands:  1 eigenvalues not converged
     total cpu time spent up to now is     4568.1 secs

     Computing kpt #:    87  of   400
     c_bands:  1 eigenvalues not converged
     total cpu time spent up to now is     4623.5 secs

     Computing kpt #:    88  of   400
     c_bands:  1 eigenvalues not converged
     total cpu time spent up to now is     4676.3 secs

     Computing kpt #:    89  of   400
     c_bands:  1 eigenvalues not converged
     total cpu time spent up to now is     4729.0 secs

     Computing kpt #:    90  of   400
     c_bands:  1 eigenvalues not converged
     total cpu time spent up to now is     4784.3 secs

     Computing kpt #:    91  of   400
     c_bands:  1 eigenvalues not converged
     total cpu time spent up to now is     4837.1 secs

     Computing kpt #:    92  of   400
     c_bands:  1 eigenvalues not converged
     total cpu time spent up to now is     4889.9 secs

     Computing kpt #:    93  of   400
     c_bands:  1 eigenvalues not converged
     total cpu time spent up to now is     4944.4 secs

     Computing kpt #:    94  of   400
     c_bands:  1 eigenvalues not converged
     total cpu time spent up to now is     4997.5 secs

     Computing kpt #:    95  of   400
     total cpu time spent up to now is     5049.2 secs

     Computing kpt #:    96  of   400
     total cpu time spent up to now is     5102.1 secs

     Computing kpt #:    97  of   400
     total cpu time spent up to now is     5154.9 secs

     Computing kpt #:    98  of   400
     total cpu time spent up to now is     5206.3 secs

     Computing kpt #:    99  of   400
     total cpu time spent up to now is     5258.1 secs

     Computing kpt #:   100  of   400
     total cpu time spent up to now is     5313.2 secs

     Computing kpt #:   101  of   400
     total cpu time spent up to now is     5365.1 secs

     Computing kpt #:   102  of   400
     total cpu time spent up to now is     5416.8 secs

     Computing kpt #:   103  of   400
     total cpu time spent up to now is     5469.2 secs

     Computing kpt #:   104  of   400
     total cpu time spent up to now is     5521.4 secs

     Computing kpt #:   105  of   400
     total cpu time spent up to now is     5576.4 secs

     Computing kpt #:   106  of   400
     total cpu time spent up to now is     5626.0 secs

     Computing kpt #:   107  of   400
     total cpu time spent up to now is     5676.3 secs

     Computing kpt #:   108  of   400
     total cpu time spent up to now is     5726.5 secs

     Computing kpt #:   109  of   400
     total cpu time spent up to now is     5778.6 secs

     Computing kpt #:   110  of   400
     c_bands:  1 eigenvalues not converged
     total cpu time spent up to now is     5834.1 secs

     Computing kpt #:   111  of   400
     total cpu time spent up to now is     5886.1 secs

     Computing kpt #:   112  of   400
     total cpu time spent up to now is     5936.4 secs

     Computing kpt #:   113  of   400
     c_bands:  1 eigenvalues not converged
     total cpu time spent up to now is     5990.9 secs

     Computing kpt #:   114  of   400
     c_bands:  1 eigenvalues not converged
     total cpu time spent up to now is     6043.9 secs

     Computing kpt #:   115  of   400
     total cpu time spent up to now is     6096.1 secs

     Computing kpt #:   116  of   400
     c_bands:  1 eigenvalues not converged
     total cpu time spent up to now is     6150.1 secs

     Computing kpt #:   117  of   400
     total cpu time spent up to now is     6202.0 secs

     Computing kpt #:   118  of   400
     total cpu time spent up to now is     6254.3 secs

     Computing kpt #:   119  of   400
     c_bands:  1 eigenvalues not converged
     total cpu time spent up to now is     6307.6 secs

     Computing kpt #:   120  of   400
     c_bands:  1 eigenvalues not converged
     total cpu time spent up to now is     6363.5 secs

     Computing kpt #:   121  of   400
     total cpu time spent up to now is     6414.9 secs

     Computing kpt #:   122  of   400
     c_bands:  1 eigenvalues not converged
     total cpu time spent up to now is     6468.4 secs

     Computing kpt #:   123  of   400
     total cpu time spent up to now is     6518.5 secs

     Computing kpt #:   124  of   400
     c_bands:  1 eigenvalues not converged
     total cpu time spent up to now is     6575.7 secs

     Computing kpt #:   125  of   400
     total cpu time spent up to now is     6631.5 secs

     Computing kpt #:   126  of   400
     total cpu time spent up to now is     6680.8 secs

     Computing kpt #:   127  of   400
     c_bands:  1 eigenvalues not converged
     total cpu time spent up to now is     6735.0 secs

     Computing kpt #:   128  of   400
     c_bands:  2 eigenvalues not converged
     total cpu time spent up to now is     6787.3 secs

     Computing kpt #:   129  of   400
     total cpu time spent up to now is     6838.7 secs

     Computing kpt #:   130  of   400
     c_bands:  2 eigenvalues not converged
     total cpu time spent up to now is     6892.6 secs

     Computing kpt #:   131  of   400
     c_bands:  2 eigenvalues not converged
     total cpu time spent up to now is     6946.2 secs

     Computing kpt #:   132  of   400
     c_bands:  2 eigenvalues not converged
     total cpu time spent up to now is     7000.0 secs

     Computing kpt #:   133  of   400
     c_bands:  2 eigenvalues not converged
     total cpu time spent up to now is     7056.2 secs

     Computing kpt #:   134  of   400
     c_bands:  2 eigenvalues not converged
     total cpu time spent up to now is     7110.0 secs

     Computing kpt #:   135  of   400
     c_bands:  2 eigenvalues not converged
     total cpu time spent up to now is     7163.8 secs

     Computing kpt #:   136  of   400
     c_bands:  2 eigenvalues not converged
     total cpu time spent up to now is     7216.0 secs

     Computing kpt #:   137  of   400
     c_bands:  2 eigenvalues not converged
     total cpu time spent up to now is     7269.4 secs

     Computing kpt #:   138  of   400
     c_bands:  2 eigenvalues not converged
     total cpu time spent up to now is     7323.2 secs

     Computing kpt #:   139  of   400
     c_bands:  2 eigenvalues not converged
     total cpu time spent up to now is     7380.0 secs

     Computing kpt #:   140  of   400
     c_bands:  2 eigenvalues not converged
     total cpu time spent up to now is     7434.0 secs

     Computing kpt #:   141  of   400
     c_bands:  2 eigenvalues not converged
     total cpu time spent up to now is     7487.8 secs

     Computing kpt #:   142  of   400
     c_bands:  2 eigenvalues not converged
     total cpu time spent up to now is     7542.1 secs

     Computing kpt #:   143  of   400
     c_bands:  2 eigenvalues not converged
     total cpu time spent up to now is     7598.0 secs

     Computing kpt #:   144  of   400
     c_bands:  2 eigenvalues not converged
     total cpu time spent up to now is     7654.4 secs

     Computing kpt #:   145  of   400
     c_bands:  2 eigenvalues not converged
     total cpu time spent up to now is     7708.2 secs

     Computing kpt #:   146  of   400
     c_bands:  2 eigenvalues not converged
     total cpu time spent up to now is     7762.4 secs

     Computing kpt #:   147  of   400
     c_bands:  2 eigenvalues not converged
     total cpu time spent up to now is     7816.4 secs

     Computing kpt #:   148  of   400
     c_bands:  2 eigenvalues not converged
     total cpu time spent up to now is     7871.8 secs

     Computing kpt #:   149  of   400
     c_bands:  1 eigenvalues not converged
     total cpu time spent up to now is     7925.9 secs

     Computing kpt #:   150  of   400
     c_bands:  2 eigenvalues not converged
     total cpu time spent up to now is     7980.0 secs

     Computing kpt #:   151  of   400
     c_bands:  2 eigenvalues not converged
     total cpu time spent up to now is     8034.1 secs

     Computing kpt #:   152  of   400
     c_bands:  2 eigenvalues not converged
     total cpu time spent up to now is     8088.4 secs

     Computing kpt #:   153  of   400
     c_bands:  2 eigenvalues not converged
     total cpu time spent up to now is     8142.3 secs

     Computing kpt #:   154  of   400
     c_bands:  2 eigenvalues not converged
     total cpu time spent up to now is     8196.2 secs

     Computing kpt #:   155  of   400
     c_bands:  2 eigenvalues not converged
     total cpu time spent up to now is     8250.1 secs

     Computing kpt #:   156  of   400
     c_bands:  2 eigenvalues not converged
     total cpu time spent up to now is     8303.9 secs

     Computing kpt #:   157  of   400
     c_bands:  2 eigenvalues not converged
     total cpu time spent up to now is     8357.8 secs

     Computing kpt #:   158  of   400
     c_bands:  2 eigenvalues not converged
     total cpu time spent up to now is     8414.4 secs

     Computing kpt #:   159  of   400
     c_bands:  2 eigenvalues not converged
     total cpu time spent up to now is     8468.8 secs

     Computing kpt #:   160  of   400
     c_bands:  2 eigenvalues not converged
     total cpu time spent up to now is     8522.6 secs

     Computing kpt #:   161  of   400
     c_bands:  2 eigenvalues not converged
     total cpu time spent up to now is     8576.6 secs

     Computing kpt #:   162  of   400
     c_bands:  2 eigenvalues not converged
     total cpu time spent up to now is     8633.7 secs

     Computing kpt #:   163  of   400
     c_bands:  2 eigenvalues not converged
     total cpu time spent up to now is     8689.9 secs

     Computing kpt #:   164  of   400
     c_bands:  2 eigenvalues not converged
     total cpu time spent up to now is     8743.9 secs

     Computing kpt #:   165  of   400
     c_bands:  2 eigenvalues not converged
     total cpu time spent up to now is     8797.7 secs

     Computing kpt #:   166  of   400
     c_bands:  2 eigenvalues not converged
     total cpu time spent up to now is     8851.8 secs

     Computing kpt #:   167  of   400
     c_bands:  2 eigenvalues not converged

 %%%%%%%%%%%%%%%%%%%%%%%%%%%%%%%%%%%%%%%%%%%%%%%%%%%%%%%%%%%%%%%%%%%%%%%%%%%%%%
     Error in routine davcio (10):
     error writing file "/fire/ribeiro/lfmart2/NbP/supercell/./out/NbP.supercell.wfc1"
 %%%%%%%%%%%%%%%%%%%%%%%%%%%%%%%%%%%%%%%%%%%%%%%%%%%%%%%%%%%%%%%%%%%%%%%%%%%%%%

     stopping ...
