
     Program PWSCF v.7.2 starts on 12Feb2024 at 17:41:51 

     This program is part of the open-source Quantum ESPRESSO suite
     for quantum simulation of materials; please cite
         "P. Giannozzi et al., J. Phys.:Condens. Matter 21 395502 (2009);
         "P. Giannozzi et al., J. Phys.:Condens. Matter 29 465901 (2017);
         "P. Giannozzi et al., J. Chem. Phys. 152 154105 (2020);
          URL http://www.quantum-espresso.org", 
     in publications or presentations arising from this work. More details at
     http://www.quantum-espresso.org/quote

     Parallel version (MPI), running on     1 processors

     MPI processes distributed on     1 nodes
     150458 MiB available memory on the printing compute node when the environment starts
 
     Waiting for input...
     Reading input from standard input

     Current dimensions of program PWSCF are:
     Max number of different atomic species (ntypx) = 10
     Max number of k-points (npk) =  40000
     Max angular momentum in pseudopotentials (lmaxx) =  4
     file Nb.pbesol-spn-kjpaw_psl.0.3.0.UPF: wavefunction(s)  4S 4P renormalized
     Found identity + (  0.5000  0.0000  0.0000) symmetry
     This is a supercell, fractional translations are disabled
 
     Subspace diagonalization in iterative solution of the eigenvalue problem:
     a serial algorithm will be used

 
     G-vector sticks info
     --------------------
     sticks:   dense  smooth     PW     G-vecs:    dense   smooth      PW
     Sum        4093    2053    569               504019   178409   25911
 
     Using Slab Decomposition
 


     bravais-lattice index     =            0
     lattice parameter (alat)  =      12.6855  a.u.
     unit-cell volume          =    5216.7059 (a.u.)^3
     number of atoms/cell      =           16
     number of atomic types    =            2
     number of electrons       =       144.00
     number of Kohn-Sham states=           86
     kinetic-energy cutoff     =      40.0000  Ry
     charge density cutoff     =     320.0000  Ry
     scf convergence threshold =      8.0E-10
     mixing beta               =       0.4000
     number of iterations used =            8  plain     mixing
     Exchange-correlation= PBESOL
                           (   1   4  10   8   0   0   0)

     celldm(1)=  12.685497  celldm(2)=   0.000000  celldm(3)=   0.000000
     celldm(4)=   0.000000  celldm(5)=   0.000000  celldm(6)=   0.000000

     crystal axes: (cart. coord. in units of alat)
               a(1) = (   1.000000   0.000000   0.000000 )  
               a(2) = (   0.000000   1.000000   0.000000 )  
               a(3) = (  -0.750000  -0.750000   2.555488 )  

     reciprocal axes: (cart. coord. in units 2 pi/alat)
               b(1) = (  1.000000  0.000000  0.293486 )  
               b(2) = (  0.000000  1.000000  0.293486 )  
               b(3) = (  0.000000  0.000000  0.391315 )  


     PseudoPot. # 1 for Nb read from file:
     ./pseudo/Nb.pbesol-spn-kjpaw_psl.0.3.0.UPF
     MD5 check sum: 3501bca1474143575298708b2d32ca28
     Pseudo is Projector augmented-wave + core cor, Zval = 13.0
     Generated using "atomic" code by A. Dal Corso  v.6.0 svn rev. 13079
     Shape of augmentation charge: PSQ
     Using radial grid of 1227 points,  6 beta functions with: 
                l(1) =   0
                l(2) =   0
                l(3) =   1
                l(4) =   1
                l(5) =   2
                l(6) =   2
     Q(r) pseudized with 0 coefficients 


     PseudoPot. # 2 for P  read from file:
     ./pseudo/P.pbesol-n-rrkjus_psl.1.0.0.UPF
     MD5 check sum: bbb94b1b16383820d6a769669b5d42db
     Pseudo is Ultrasoft + core correction, Zval =  5.0
     Generated using "atomic" code by A. Dal Corso  v.6.0 svn rev. 13079
     Using radial grid of 1147 points,  6 beta functions with: 
                l(1) =   0
                l(2) =   0
                l(3) =   1
                l(4) =   1
                l(5) =   2
                l(6) =   2
     Q(r) pseudized with 0 coefficients 


     atomic species   valence    mass     pseudopotential
        Nb            13.00    92.90638     Nb( 1.00)
        P              5.00    30.97376     P ( 1.00)

     No symmetry found


                                    s                        frac. trans.

      isym =  1     identity                                     

 cryst.   s( 1) = (     1          0          0      )
                  (     0          1          0      )
                  (     0          0          1      )

 cart.    s( 1) = (  1.0000000  0.0000000  0.0000000 )
                  (  0.0000000  1.0000000  0.0000000 )
                  (  0.0000000  0.0000000  1.0000000 )


   Cartesian axes

     site n.     atom                  positions (alat units)
         1           Nb  tau(   1) = (   0.0000000   0.0000000   0.8516982  )
         2           Nb  tau(   2) = (   0.5000000   0.0000000   0.8516982  )
         3           Nb  tau(   3) = (   0.0000000   0.5000000   0.8516982  )
         4           Nb  tau(   4) = (   0.5000000   0.5000000   0.8516982  )
         5           Nb  tau(   5) = (   0.2500000   0.0000000   0.4257835  )
         6           Nb  tau(   6) = (   0.7500000   0.0000000   0.4257835  )
         7           Nb  tau(   7) = (   0.2500000   0.5000000   0.4257835  )
         8           Nb  tau(   8) = (   0.7500000   0.5000000   0.4257835  )
         9           P   tau(   9) = (   0.2500000   0.2500000   0.7111872  )
        10           P   tau(  10) = (   0.7500000   0.2500000   0.7111872  )
        11           P   tau(  11) = (   0.2500000   0.7500000   0.7111872  )
        12           P   tau(  12) = (   0.7500000   0.7500000   0.7111872  )
        13           P   tau(  13) = (   0.0000000   0.2500000   0.2852725  )
        14           P   tau(  14) = (   0.5000000   0.2500000   0.2852725  )
        15           P   tau(  15) = (   0.0000000   0.7500000   0.2852725  )
        16           P   tau(  16) = (   0.5000000   0.7500000   0.2852725  )

   Crystallographic axes

     site n.     atom                  positions (cryst. coord.)
         1           Nb  tau(   1) = (  0.2499615  0.2499615  0.3332820  )
         2           Nb  tau(   2) = (  0.7499615  0.2499615  0.3332820  )
         3           Nb  tau(   3) = (  0.2499615  0.7499615  0.3332820  )
         4           Nb  tau(   4) = (  0.7499615  0.7499615  0.3332820  )
         5           Nb  tau(   5) = (  0.3749615  0.1249615  0.1666153  )
         6           Nb  tau(   6) = (  0.8749615  0.1249615  0.1666153  )
         7           Nb  tau(   7) = (  0.3749615  0.6249615  0.1666153  )
         8           Nb  tau(   8) = (  0.8749615  0.6249615  0.1666153  )
         9           P   tau(   9) = (  0.4587235  0.4587235  0.2782980  )
        10           P   tau(  10) = (  0.9587235  0.4587235  0.2782980  )
        11           P   tau(  11) = (  0.4587235  0.9587235  0.2782980  )
        12           P   tau(  12) = (  0.9587235  0.9587235  0.2782980  )
        13           P   tau(  13) = (  0.0837235  0.3337235  0.1116313  )
        14           P   tau(  14) = (  0.5837235  0.3337235  0.1116313  )
        15           P   tau(  15) = (  0.0837235  0.8337235  0.1116313  )
        16           P   tau(  16) = (  0.5837235  0.8337235  0.1116313  )

     number of k points=    50  Marzari-Vanderbilt smearing, width (Ry)=  0.0073
                       cart. coord. in units 2pi/alat
        k(    1) = (   0.0000000   0.0000000   0.0000000), wk =   0.0204082
        k(    2) = (   0.0000000   0.0000000  -0.1956573), wk =   0.0204082
        k(    3) = (   0.0000000   0.1428571   0.0419266), wk =   0.0408163
        k(    4) = (   0.0000000   0.1428571  -0.1537308), wk =   0.0408163
        k(    5) = (   0.0000000   0.2857143   0.0838531), wk =   0.0408163
        k(    6) = (   0.0000000   0.2857143  -0.1118042), wk =   0.0408163
        k(    7) = (   0.0000000   0.4285714   0.1257797), wk =   0.0408163
        k(    8) = (   0.0000000   0.4285714  -0.0698776), wk =   0.0408163
        k(    9) = (   0.1428571   0.1428571   0.0838531), wk =   0.0408163
        k(   10) = (   0.1428571   0.1428571  -0.1118042), wk =   0.0408163
        k(   11) = (   0.1428571   0.2857143   0.1257797), wk =   0.0408163
        k(   12) = (   0.1428571   0.2857143  -0.0698776), wk =   0.0408163
        k(   13) = (   0.1428571   0.4285714   0.1677063), wk =   0.0408163
        k(   14) = (   0.1428571   0.4285714  -0.0279510), wk =   0.0408163
        k(   15) = (   0.1428571  -0.4285714  -0.0838531), wk =   0.0408163
        k(   16) = (   0.1428571  -0.4285714  -0.2795105), wk =   0.0408163
        k(   17) = (   0.1428571  -0.2857143  -0.0419266), wk =   0.0408163
        k(   18) = (   0.1428571  -0.2857143  -0.2375839), wk =   0.0408163
        k(   19) = (   0.1428571  -0.1428571  -0.0000000), wk =   0.0408163
        k(   20) = (   0.1428571  -0.1428571  -0.1956573), wk =   0.0408163
        k(   21) = (   0.2857143   0.2857143   0.1677063), wk =   0.0408163
        k(   22) = (   0.2857143   0.2857143  -0.0279510), wk =   0.0408163
        k(   23) = (   0.2857143   0.4285714   0.2096329), wk =   0.0408163
        k(   24) = (   0.2857143   0.4285714   0.0139755), wk =   0.0408163
        k(   25) = (   0.2857143  -0.4285714  -0.0419266), wk =   0.0408163
        k(   26) = (   0.2857143  -0.4285714  -0.2375839), wk =   0.0408163
        k(   27) = (   0.2857143  -0.2857143   0.0000000), wk =   0.0408163
        k(   28) = (   0.2857143  -0.2857143  -0.1956573), wk =   0.0408163
        k(   29) = (   0.4285714   0.4285714   0.2515594), wk =   0.0408163
        k(   30) = (   0.4285714   0.4285714   0.0559021), wk =   0.0408163
        k(   31) = (   0.4285714  -0.4285714  -0.0000000), wk =   0.0408163
        k(   32) = (   0.4285714  -0.4285714  -0.1956573), wk =   0.0408163
        k(   33) = (  -0.1428571   0.0000000  -0.0419266), wk =   0.0408163
        k(   34) = (  -0.1428571   0.0000000   0.1537308), wk =   0.0408163
        k(   35) = (  -0.2857143   0.0000000  -0.0838531), wk =   0.0408163
        k(   36) = (  -0.2857143   0.0000000   0.1118042), wk =   0.0408163
        k(   37) = (  -0.4285714   0.0000000  -0.1257797), wk =   0.0408163
        k(   38) = (  -0.4285714   0.0000000   0.0698776), wk =   0.0408163
        k(   39) = (  -0.2857143  -0.1428571  -0.1257797), wk =   0.0408163
        k(   40) = (  -0.2857143  -0.1428571   0.0698776), wk =   0.0408163
        k(   41) = (  -0.4285714  -0.1428571  -0.1677063), wk =   0.0408163
        k(   42) = (  -0.4285714  -0.1428571   0.0279510), wk =   0.0408163
        k(   43) = (   0.4285714  -0.1428571   0.0838531), wk =   0.0408163
        k(   44) = (   0.4285714  -0.1428571   0.2795105), wk =   0.0408163
        k(   45) = (   0.2857143  -0.1428571   0.0419266), wk =   0.0408163
        k(   46) = (   0.2857143  -0.1428571   0.2375839), wk =   0.0408163
        k(   47) = (  -0.4285714  -0.2857143  -0.2096329), wk =   0.0408163
        k(   48) = (  -0.4285714  -0.2857143  -0.0139755), wk =   0.0408163
        k(   49) = (   0.4285714  -0.2857143   0.0419266), wk =   0.0408163
        k(   50) = (   0.4285714  -0.2857143   0.2375839), wk =   0.0408163

                       cryst. coord.
        k(    1) = (   0.0000000   0.0000000   0.0000000), wk =   0.0204082
        k(    2) = (   0.0000000   0.0000000  -0.5000000), wk =   0.0204082
        k(    3) = (   0.0000000   0.1428571   0.0000000), wk =   0.0408163
        k(    4) = (   0.0000000   0.1428571  -0.5000000), wk =   0.0408163
        k(    5) = (   0.0000000   0.2857143   0.0000000), wk =   0.0408163
        k(    6) = (   0.0000000   0.2857143  -0.5000000), wk =   0.0408163
        k(    7) = (   0.0000000   0.4285714   0.0000000), wk =   0.0408163
        k(    8) = (   0.0000000   0.4285714  -0.5000000), wk =   0.0408163
        k(    9) = (   0.1428571   0.1428571   0.0000000), wk =   0.0408163
        k(   10) = (   0.1428571   0.1428571  -0.5000000), wk =   0.0408163
        k(   11) = (   0.1428571   0.2857143   0.0000000), wk =   0.0408163
        k(   12) = (   0.1428571   0.2857143  -0.5000000), wk =   0.0408163
        k(   13) = (   0.1428571   0.4285714   0.0000000), wk =   0.0408163
        k(   14) = (   0.1428571   0.4285714  -0.5000000), wk =   0.0408163
        k(   15) = (   0.1428571  -0.4285714   0.0000000), wk =   0.0408163
        k(   16) = (   0.1428571  -0.4285714  -0.5000000), wk =   0.0408163
        k(   17) = (   0.1428571  -0.2857143   0.0000000), wk =   0.0408163
        k(   18) = (   0.1428571  -0.2857143  -0.5000000), wk =   0.0408163
        k(   19) = (   0.1428571  -0.1428571   0.0000000), wk =   0.0408163
        k(   20) = (   0.1428571  -0.1428571  -0.5000000), wk =   0.0408163
        k(   21) = (   0.2857143   0.2857143   0.0000000), wk =   0.0408163
        k(   22) = (   0.2857143   0.2857143  -0.5000000), wk =   0.0408163
        k(   23) = (   0.2857143   0.4285714   0.0000000), wk =   0.0408163
        k(   24) = (   0.2857143   0.4285714  -0.5000000), wk =   0.0408163
        k(   25) = (   0.2857143  -0.4285714  -0.0000000), wk =   0.0408163
        k(   26) = (   0.2857143  -0.4285714  -0.5000000), wk =   0.0408163
        k(   27) = (   0.2857143  -0.2857143   0.0000000), wk =   0.0408163
        k(   28) = (   0.2857143  -0.2857143  -0.5000000), wk =   0.0408163
        k(   29) = (   0.4285714   0.4285714   0.0000000), wk =   0.0408163
        k(   30) = (   0.4285714   0.4285714  -0.5000000), wk =   0.0408163
        k(   31) = (   0.4285714  -0.4285714  -0.0000000), wk =   0.0408163
        k(   32) = (   0.4285714  -0.4285714  -0.5000000), wk =   0.0408163
        k(   33) = (  -0.1428571   0.0000000   0.0000000), wk =   0.0408163
        k(   34) = (  -0.1428571   0.0000000   0.5000000), wk =   0.0408163
        k(   35) = (  -0.2857143   0.0000000   0.0000000), wk =   0.0408163
        k(   36) = (  -0.2857143   0.0000000   0.5000000), wk =   0.0408163
        k(   37) = (  -0.4285714   0.0000000   0.0000000), wk =   0.0408163
        k(   38) = (  -0.4285714   0.0000000   0.5000000), wk =   0.0408163
        k(   39) = (  -0.2857143  -0.1428571   0.0000000), wk =   0.0408163
        k(   40) = (  -0.2857143  -0.1428571   0.5000000), wk =   0.0408163
        k(   41) = (  -0.4285714  -0.1428571   0.0000000), wk =   0.0408163
        k(   42) = (  -0.4285714  -0.1428571   0.5000000), wk =   0.0408163
        k(   43) = (   0.4285714  -0.1428571   0.0000000), wk =   0.0408163
        k(   44) = (   0.4285714  -0.1428571   0.5000000), wk =   0.0408163
        k(   45) = (   0.2857143  -0.1428571   0.0000000), wk =   0.0408163
        k(   46) = (   0.2857143  -0.1428571   0.5000000), wk =   0.0408163
        k(   47) = (  -0.4285714  -0.2857143   0.0000000), wk =   0.0408163
        k(   48) = (  -0.4285714  -0.2857143   0.5000000), wk =   0.0408163
        k(   49) = (   0.4285714  -0.2857143   0.0000000), wk =   0.0408163
        k(   50) = (   0.4285714  -0.2857143   0.5000000), wk =   0.0408163

     Dense  grid:   504019 G-vectors     FFT dimensions: (  75,  75, 200)

     Smooth grid:   178409 G-vectors     FFT dimensions: (  54,  54, 144)

     Dynamical RAM for                 wfc:      29.24 MB

     Dynamical RAM for     wfc (w. buffer):    1491.49 MB

     Dynamical RAM for           str. fact:      15.38 MB

     Dynamical RAM for           local pot:       0.00 MB

     Dynamical RAM for          nlocal pot:      97.94 MB

     Dynamical RAM for                qrad:       2.87 MB

     Dynamical RAM for          rho,v,vnew:      48.82 MB

     Dynamical RAM for               rhoin:      16.27 MB

     Dynamical RAM for            rho*nmix:     123.05 MB

     Dynamical RAM for           G-vectors:      30.20 MB

     Dynamical RAM for          h,s,v(r/c):       1.35 MB

     Dynamical RAM for          <psi|beta>:       0.38 MB

     Dynamical RAM for                 psi:      58.49 MB

     Dynamical RAM for                hpsi:      58.49 MB

     Dynamical RAM for                spsi:      58.49 MB

     Dynamical RAM for      wfcinit/wfcrot:      76.46 MB

     Dynamical RAM for           addusdens:    1492.00 MB

     Estimated static dynamical RAM per process >       1.73 GB

     Estimated max dynamical RAM per process >       3.30 GB

     Check: negative core charge=   -0.000001

     Initial potential from superposition of free atoms

     starting charge     143.9834, renormalised to     144.0000

     negative rho (up, down):  9.878E-04 0.000E+00
     Starting wfcs are  112 randomized atomic wfcs
     Checking if some PAW data can be deallocated... 

     total cpu time spent up to now is       61.5 secs

     per-process dynamical memory:  1831.2 Mb

     Self-consistent Calculation

     iteration #  1     ecut=    40.00 Ry     beta= 0.40
     Davidson diagonalization with overlap

---- Real-time Memory Report at c_bands before calling an iterative solver
          1871 MiB given to the printing process from OS
          1804 MiB allocation reported by mallinfo(arena+hblkhd)
        148639 MiB available memory on the node where the printing process lives
------------------
     ethr =  1.00E-02,  avg # of iterations =  2.6

     negative rho (up, down):  6.052E-04 0.000E+00

     total cpu time spent up to now is      216.0 secs

     total energy              =   -2750.38016077 Ry
     estimated scf accuracy    <       5.77308827 Ry

     iteration #  2     ecut=    40.00 Ry     beta= 0.40
     Davidson diagonalization with overlap

---- Real-time Memory Report at c_bands before calling an iterative solver
          3386 MiB given to the printing process from OS
          1876 MiB allocation reported by mallinfo(arena+hblkhd)
        148564 MiB available memory on the node where the printing process lives
------------------
     ethr =  4.01E-03,  avg # of iterations =  9.9

     negative rho (up, down):  1.165E-03 0.000E+00

     total cpu time spent up to now is      458.9 secs

     total energy              =   -2741.66790279 Ry
     estimated scf accuracy    <     248.33918951 Ry

     iteration #  3     ecut=    40.00 Ry     beta= 0.40
     Davidson diagonalization with overlap

---- Real-time Memory Report at c_bands before calling an iterative solver
          3393 MiB given to the printing process from OS
          1881 MiB allocation reported by mallinfo(arena+hblkhd)
        148558 MiB available memory on the node where the printing process lives
------------------
     ethr =  4.01E-03,  avg # of iterations =  7.9

     negative rho (up, down):  6.495E-04 0.000E+00

     total cpu time spent up to now is      678.0 secs

     total energy              =   -2752.61232379 Ry
     estimated scf accuracy    <       4.93110078 Ry

     iteration #  4     ecut=    40.00 Ry     beta= 0.40
     Davidson diagonalization with overlap

---- Real-time Memory Report at c_bands before calling an iterative solver
          3399 MiB given to the printing process from OS
          1887 MiB allocation reported by mallinfo(arena+hblkhd)
        148550 MiB available memory on the node where the printing process lives
------------------
     ethr =  3.42E-03,  avg # of iterations =  1.1

     negative rho (up, down):  5.377E-04 0.000E+00

     total cpu time spent up to now is      802.0 secs

     total energy              =   -2752.78442550 Ry
     estimated scf accuracy    <       0.41343211 Ry

     iteration #  5     ecut=    40.00 Ry     beta= 0.40
     Davidson diagonalization with overlap

---- Real-time Memory Report at c_bands before calling an iterative solver
          3404 MiB given to the printing process from OS
          1892 MiB allocation reported by mallinfo(arena+hblkhd)
        148544 MiB available memory on the node where the printing process lives
------------------
     c_bands:  1 eigenvalues not converged
     ethr =  2.87E-04,  avg # of iterations =  7.3

     negative rho (up, down):  5.704E-04 0.000E+00

     total cpu time spent up to now is      968.6 secs

     total energy              =   -2752.79211922 Ry
     estimated scf accuracy    <       0.15065711 Ry

     iteration #  6     ecut=    40.00 Ry     beta= 0.40
     Davidson diagonalization with overlap

---- Real-time Memory Report at c_bands before calling an iterative solver
          3410 MiB given to the printing process from OS
          1898 MiB allocation reported by mallinfo(arena+hblkhd)
        148537 MiB available memory on the node where the printing process lives
------------------
     ethr =  1.05E-04,  avg # of iterations =  4.0

     negative rho (up, down):  6.145E-04 0.000E+00

     total cpu time spent up to now is     1117.0 secs

     total energy              =   -2752.78721337 Ry
     estimated scf accuracy    <       0.22531584 Ry

     iteration #  7     ecut=    40.00 Ry     beta= 0.40
     Davidson diagonalization with overlap

---- Real-time Memory Report at c_bands before calling an iterative solver
          3415 MiB given to the printing process from OS
          1903 MiB allocation reported by mallinfo(arena+hblkhd)
        148529 MiB available memory on the node where the printing process lives
------------------
     ethr =  1.05E-04,  avg # of iterations =  1.7

     negative rho (up, down):  6.442E-04 0.000E+00

     total cpu time spent up to now is     1246.7 secs

     total energy              =   -2752.80404282 Ry
     estimated scf accuracy    <       0.04407868 Ry

     iteration #  8     ecut=    40.00 Ry     beta= 0.40
     Davidson diagonalization with overlap

---- Real-time Memory Report at c_bands before calling an iterative solver
          3421 MiB given to the printing process from OS
          1909 MiB allocation reported by mallinfo(arena+hblkhd)
        148526 MiB available memory on the node where the printing process lives
------------------
     c_bands:  1 eigenvalues not converged
     c_bands:  1 eigenvalues not converged
     c_bands:  1 eigenvalues not converged
     ethr =  3.06E-05,  avg # of iterations =  7.9

     negative rho (up, down):  6.487E-04 0.000E+00

     total cpu time spent up to now is     1408.5 secs

     total energy              =   -2752.80603019 Ry
     estimated scf accuracy    <       0.01376992 Ry

     iteration #  9     ecut=    40.00 Ry     beta= 0.40
     Davidson diagonalization with overlap

---- Real-time Memory Report at c_bands before calling an iterative solver
          3426 MiB given to the printing process from OS
          1914 MiB allocation reported by mallinfo(arena+hblkhd)
        148519 MiB available memory on the node where the printing process lives
------------------
     c_bands:  1 eigenvalues not converged
     c_bands:  1 eigenvalues not converged
     ethr =  9.56E-06,  avg # of iterations =  9.2

     negative rho (up, down):  6.571E-04 0.000E+00

     total cpu time spent up to now is     1584.4 secs

     total energy              =   -2752.80652785 Ry
     estimated scf accuracy    <       0.01808803 Ry

     iteration # 10     ecut=    40.00 Ry     beta= 0.40
     Davidson diagonalization with overlap

---- Real-time Memory Report at c_bands before calling an iterative solver
          3432 MiB given to the printing process from OS
          1920 MiB allocation reported by mallinfo(arena+hblkhd)
        148512 MiB available memory on the node where the printing process lives
------------------
     ethr =  9.56E-06,  avg # of iterations =  1.3

     negative rho (up, down):  6.777E-04 0.000E+00

     total cpu time spent up to now is     1710.1 secs

     total energy              =   -2752.80748675 Ry
     estimated scf accuracy    <       0.00052621 Ry

     iteration # 11     ecut=    40.00 Ry     beta= 0.40
     Davidson diagonalization with overlap

---- Real-time Memory Report at c_bands before calling an iterative solver
          3432 MiB given to the printing process from OS
          1920 MiB allocation reported by mallinfo(arena+hblkhd)
        148513 MiB available memory on the node where the printing process lives
------------------
     ethr =  3.65E-07,  avg # of iterations =  7.1

     negative rho (up, down):  6.907E-04 0.000E+00

     total cpu time spent up to now is     1905.6 secs

     total energy              =   -2752.80759875 Ry
     estimated scf accuracy    <       0.00098231 Ry

     iteration # 12     ecut=    40.00 Ry     beta= 0.40
     Davidson diagonalization with overlap

---- Real-time Memory Report at c_bands before calling an iterative solver
          3432 MiB given to the printing process from OS
          1920 MiB allocation reported by mallinfo(arena+hblkhd)
        148513 MiB available memory on the node where the printing process lives
------------------
     ethr =  3.65E-07,  avg # of iterations =  2.6

     negative rho (up, down):  6.948E-04 0.000E+00

     total cpu time spent up to now is     2050.2 secs

     total energy              =   -2752.80768057 Ry
     estimated scf accuracy    <       0.00019539 Ry

     iteration # 13     ecut=    40.00 Ry     beta= 0.40
     Davidson diagonalization with overlap

---- Real-time Memory Report at c_bands before calling an iterative solver
          3432 MiB given to the printing process from OS
          1920 MiB allocation reported by mallinfo(arena+hblkhd)
        148512 MiB available memory on the node where the printing process lives
------------------
     ethr =  1.36E-07,  avg # of iterations =  2.5

     negative rho (up, down):  6.966E-04 0.000E+00

     total cpu time spent up to now is     2190.6 secs

     total energy              =   -2752.80768742 Ry
     estimated scf accuracy    <       0.00015264 Ry

     iteration # 14     ecut=    40.00 Ry     beta= 0.40
     Davidson diagonalization with overlap

---- Real-time Memory Report at c_bands before calling an iterative solver
          3432 MiB given to the printing process from OS
          1920 MiB allocation reported by mallinfo(arena+hblkhd)
        148513 MiB available memory on the node where the printing process lives
------------------
     ethr =  1.06E-07,  avg # of iterations =  1.8

     negative rho (up, down):  7.025E-04 0.000E+00

     total cpu time spent up to now is     2323.5 secs

     total energy              =   -2752.80770098 Ry
     estimated scf accuracy    <       0.00002647 Ry

     iteration # 15     ecut=    40.00 Ry     beta= 0.40
     Davidson diagonalization with overlap

---- Real-time Memory Report at c_bands before calling an iterative solver
          3432 MiB given to the printing process from OS
          1920 MiB allocation reported by mallinfo(arena+hblkhd)
        148513 MiB available memory on the node where the printing process lives
------------------
     ethr =  1.84E-08,  avg # of iterations =  4.9

     negative rho (up, down):  7.034E-04 0.000E+00

     total cpu time spent up to now is     2473.4 secs

     total energy              =   -2752.80770380 Ry
     estimated scf accuracy    <       0.00001542 Ry

     iteration # 16     ecut=    40.00 Ry     beta= 0.40
     Davidson diagonalization with overlap

---- Real-time Memory Report at c_bands before calling an iterative solver
          3432 MiB given to the printing process from OS
          1920 MiB allocation reported by mallinfo(arena+hblkhd)
        148513 MiB available memory on the node where the printing process lives
------------------
     ethr =  1.07E-08,  avg # of iterations =  2.0

     negative rho (up, down):  7.043E-04 0.000E+00

     total cpu time spent up to now is     2607.1 secs

     total energy              =   -2752.80770447 Ry
     estimated scf accuracy    <       0.00000393 Ry

     iteration # 17     ecut=    40.00 Ry     beta= 0.40
     Davidson diagonalization with overlap

---- Real-time Memory Report at c_bands before calling an iterative solver
          3432 MiB given to the printing process from OS
          1920 MiB allocation reported by mallinfo(arena+hblkhd)
        148513 MiB available memory on the node where the printing process lives
------------------
     ethr =  2.73E-09,  avg # of iterations =  5.6

     negative rho (up, down):  7.051E-04 0.000E+00

     total cpu time spent up to now is     2762.3 secs

     total energy              =   -2752.80770475 Ry
     estimated scf accuracy    <       0.00000551 Ry

     iteration # 18     ecut=    40.00 Ry     beta= 0.40
     Davidson diagonalization with overlap

---- Real-time Memory Report at c_bands before calling an iterative solver
          3432 MiB given to the printing process from OS
          1920 MiB allocation reported by mallinfo(arena+hblkhd)
        148514 MiB available memory on the node where the printing process lives
------------------
     ethr =  2.73E-09,  avg # of iterations =  1.4

     negative rho (up, down):  7.059E-04 0.000E+00

     total cpu time spent up to now is     2889.0 secs

     total energy              =   -2752.80770503 Ry
     estimated scf accuracy    <       0.00000027 Ry

     iteration # 19     ecut=    40.00 Ry     beta= 0.40
     Davidson diagonalization with overlap

---- Real-time Memory Report at c_bands before calling an iterative solver
          3432 MiB given to the printing process from OS
          1920 MiB allocation reported by mallinfo(arena+hblkhd)
        148513 MiB available memory on the node where the printing process lives
------------------
     ethr =  1.88E-10,  avg # of iterations =  5.8

     negative rho (up, down):  7.063E-04 0.000E+00

     total cpu time spent up to now is     3072.6 secs

     total energy              =   -2752.80770510 Ry
     estimated scf accuracy    <       0.00000015 Ry

     iteration # 20     ecut=    40.00 Ry     beta= 0.40
     Davidson diagonalization with overlap

---- Real-time Memory Report at c_bands before calling an iterative solver
          3432 MiB given to the printing process from OS
          1920 MiB allocation reported by mallinfo(arena+hblkhd)
        148513 MiB available memory on the node where the printing process lives
------------------
     ethr =  1.04E-10,  avg # of iterations =  2.0

     negative rho (up, down):  7.064E-04 0.000E+00

     total cpu time spent up to now is     3211.8 secs

     total energy              =   -2752.80770511 Ry
     estimated scf accuracy    <       0.00000004 Ry

     iteration # 21     ecut=    40.00 Ry     beta= 0.40
     Davidson diagonalization with overlap

---- Real-time Memory Report at c_bands before calling an iterative solver
          3432 MiB given to the printing process from OS
          1920 MiB allocation reported by mallinfo(arena+hblkhd)
        148513 MiB available memory on the node where the printing process lives
------------------
     ethr =  2.54E-11,  avg # of iterations =  3.3

     negative rho (up, down):  7.065E-04 0.000E+00

     total cpu time spent up to now is     3363.1 secs

     total energy              =   -2752.80770511 Ry
     estimated scf accuracy    <       0.00000002 Ry

     iteration # 22     ecut=    40.00 Ry     beta= 0.40
     Davidson diagonalization with overlap

---- Real-time Memory Report at c_bands before calling an iterative solver
          3432 MiB given to the printing process from OS
          1920 MiB allocation reported by mallinfo(arena+hblkhd)
        148513 MiB available memory on the node where the printing process lives
------------------
     ethr =  1.39E-11,  avg # of iterations =  2.0

     negative rho (up, down):  7.067E-04 0.000E+00

     total cpu time spent up to now is     3497.1 secs

     total energy              =   -2752.80770511 Ry
     estimated scf accuracy    <       0.00000001 Ry

     iteration # 23     ecut=    40.00 Ry     beta= 0.40
     Davidson diagonalization with overlap

---- Real-time Memory Report at c_bands before calling an iterative solver
          3432 MiB given to the printing process from OS
          1920 MiB allocation reported by mallinfo(arena+hblkhd)
        148513 MiB available memory on the node where the printing process lives
------------------
     ethr =  8.54E-12,  avg # of iterations =  2.0

     negative rho (up, down):  7.066E-04 0.000E+00

     total cpu time spent up to now is     3632.5 secs

     total energy              =   -2752.80770511 Ry
     estimated scf accuracy    <          2.4E-09 Ry

     iteration # 24     ecut=    40.00 Ry     beta= 0.40
     Davidson diagonalization with overlap

---- Real-time Memory Report at c_bands before calling an iterative solver
          3432 MiB given to the printing process from OS
          1920 MiB allocation reported by mallinfo(arena+hblkhd)
        148514 MiB available memory on the node where the printing process lives
------------------
     ethr =  1.64E-12,  avg # of iterations =  3.1

     negative rho (up, down):  7.067E-04 0.000E+00

     total cpu time spent up to now is     3773.2 secs

     End of self-consistent calculation

          k = 0.0000 0.0000 0.0000 ( 22335 PWs)   bands (ev):

   -53.1385 -53.1222 -53.1217 -53.1059 -52.9649 -52.9493 -52.9478 -52.9328
   -29.3930 -29.3801 -29.3487 -29.3359 -29.3322 -29.2981 -29.2747 -29.2463
   -29.2221 -29.1841 -29.1500 -29.1337 -29.1279 -29.1245 -29.1184 -29.1165
   -29.0991 -29.0972 -29.0918 -29.0911 -28.9634 -28.9402 -28.9210 -28.8960
   -10.0026  -8.5421  -8.4564  -8.4271  -8.2144  -7.4385  -7.4214  -7.3988
    -4.0493  -3.7014  -3.2346  -2.9663  -2.8781  -2.7562  -2.3449  -2.0190
    -1.7109  -1.5638  -1.2784  -1.1005  -1.0261  -0.9190  -0.3891  -0.3557
    -0.3373  -0.2550  -0.2376  -0.0356   0.0298   0.2221   0.8298   1.0777
     1.0964   1.1631   1.1801   1.5130   1.6727   1.6772   1.9423   2.0240
     2.0256   2.1017   2.4496   2.7690   2.8592   2.9207   2.9241   2.9415
     3.3507   3.3678   3.5341   3.7640   3.7776   4.2377

     occupation numbers 
     1.0000   1.0000   1.0000   1.0000   1.0000   1.0000   1.0000   1.0000
     1.0000   1.0000   1.0000   1.0000   1.0000   1.0000   1.0000   1.0000
     1.0000   1.0000   1.0000   1.0000   1.0000   1.0000   1.0000   1.0000
     1.0000   1.0000   1.0000   1.0000   1.0000   1.0000   1.0000   1.0000
     1.0000   1.0000   1.0000   1.0000   1.0000   1.0000   1.0000   1.0000
     1.0000   1.0000   1.0000   1.0000   1.0000   1.0000   1.0000   1.0000
     1.0000   1.0000   1.0000   1.0000   1.0000   1.0000   1.0000   1.0000
     1.0000   1.0000   1.0000   1.0000   1.0000   1.0000   1.0000   1.0000
     1.0000   1.0000   1.0000   1.0001   1.0414   1.0453   0.0791   0.0037
     0.0035   0.0001   0.0000   0.0000   0.0000   0.0000   0.0000   0.0000
     0.0000   0.0000   0.0000   0.0000   0.0000   0.0000

          k = 0.0000 0.0000-0.1957 ( 22272 PWs)   bands (ev):

   -53.1385 -53.1222 -53.1217 -53.1059 -52.9649 -52.9493 -52.9478 -52.9328
   -29.3930 -29.3801 -29.3487 -29.3359 -29.3321 -29.2981 -29.2747 -29.2463
   -29.2221 -29.1841 -29.1499 -29.1337 -29.1279 -29.1245 -29.1183 -29.1164
   -29.0991 -29.0972 -29.0918 -29.0911 -28.9633 -28.9402 -28.9209 -28.8960
   -10.0026  -8.5421  -8.4564  -8.4271  -8.2144  -7.4385  -7.4214  -7.3988
    -4.0493  -3.7014  -3.2346  -2.9663  -2.8781  -2.7562  -2.3449  -2.0190
    -1.7109  -1.5638  -1.2784  -1.1004  -1.0261  -0.9190  -0.3891  -0.3557
    -0.3373  -0.2550  -0.2376  -0.0356   0.0298   0.2221   0.8298   1.0777
     1.0964   1.1631   1.1801   1.5130   1.6728   1.6772   1.9423   2.0240
     2.0256   2.1017   2.4496   2.7690   2.8592   2.9207   2.9241   2.9415
     3.3507   3.3678   3.5341   3.7640   3.7776   4.2377

     occupation numbers 
     1.0000   1.0000   1.0000   1.0000   1.0000   1.0000   1.0000   1.0000
     1.0000   1.0000   1.0000   1.0000   1.0000   1.0000   1.0000   1.0000
     1.0000   1.0000   1.0000   1.0000   1.0000   1.0000   1.0000   1.0000
     1.0000   1.0000   1.0000   1.0000   1.0000   1.0000   1.0000   1.0000
     1.0000   1.0000   1.0000   1.0000   1.0000   1.0000   1.0000   1.0000
     1.0000   1.0000   1.0000   1.0000   1.0000   1.0000   1.0000   1.0000
     1.0000   1.0000   1.0000   1.0000   1.0000   1.0000   1.0000   1.0000
     1.0000   1.0000   1.0000   1.0000   1.0000   1.0000   1.0000   1.0000
     1.0000   1.0000   1.0000   1.0001   1.0414   1.0453   0.0791   0.0037
     0.0035   0.0001   0.0000   0.0000   0.0000   0.0000   0.0000   0.0000
     0.0000   0.0000   0.0000   0.0000   0.0000   0.0000

          k = 0.0000 0.1429 0.0419 ( 22292 PWs)   bands (ev):

   -53.1377 -53.1230 -53.1209 -53.1067 -52.9640 -52.9487 -52.9485 -52.9336
   -29.3814 -29.3779 -29.3381 -29.3379 -29.3306 -29.2995 -29.2733 -29.2476
   -29.2096 -29.1723 -29.1621 -29.1358 -29.1319 -29.1265 -29.1171 -29.1153
   -29.1005 -29.0990 -29.0930 -29.0924 -28.9765 -28.9525 -28.9198 -28.8973
    -9.9397  -8.5509  -8.4973  -8.4122  -8.2204  -7.4851  -7.4337  -7.4185
    -3.8916  -3.6444  -3.1754  -2.9462  -2.8666  -2.6933  -2.4971  -1.9595
    -1.5663  -1.5357  -1.3381  -1.2484  -1.1072  -0.8539  -0.6538  -0.6272
    -0.3577  -0.2218   0.0582   0.0797   0.1920   0.2114   0.8985   0.9182
     1.0921   1.1598   1.2156   1.3173   1.5762   1.5825   1.7688   2.0422
     2.0767   2.4566   2.5110   2.6621   2.7033   2.7946   2.8981   3.0942
     3.2489   3.4631   3.4830   3.6752   3.7337   4.1734

     occupation numbers 
     1.0000   1.0000   1.0000   1.0000   1.0000   1.0000   1.0000   1.0000
     1.0000   1.0000   1.0000   1.0000   1.0000   1.0000   1.0000   1.0000
     1.0000   1.0000   1.0000   1.0000   1.0000   1.0000   1.0000   1.0000
     1.0000   1.0000   1.0000   1.0000   1.0000   1.0000   1.0000   1.0000
     1.0000   1.0000   1.0000   1.0000   1.0000   1.0000   1.0000   1.0000
     1.0000   1.0000   1.0000   1.0000   1.0000   1.0000   1.0000   1.0000
     1.0000   1.0000   1.0000   1.0000   1.0000   1.0000   1.0000   1.0000
     1.0000   1.0000   1.0000   1.0000   1.0000   1.0000   1.0000   1.0000
     1.0000   1.0000   1.0000   1.0000   1.0017   1.0023   1.0376   0.0016
     0.0003   0.0000   0.0000   0.0000   0.0000   0.0000   0.0000   0.0000
     0.0000   0.0000   0.0000   0.0000   0.0000   0.0000

          k = 0.0000 0.1429-0.1537 ( 22285 PWs)   bands (ev):

   -53.1377 -53.1230 -53.1209 -53.1067 -52.9640 -52.9487 -52.9485 -52.9336
   -29.3814 -29.3779 -29.3381 -29.3379 -29.3306 -29.2996 -29.2733 -29.2476
   -29.2096 -29.1723 -29.1621 -29.1358 -29.1319 -29.1265 -29.1170 -29.1153
   -29.1005 -29.0990 -29.0930 -29.0924 -28.9765 -28.9525 -28.9198 -28.8973
    -9.9397  -8.5509  -8.4973  -8.4122  -8.2204  -7.4851  -7.4337  -7.4185
    -3.8916  -3.6444  -3.1754  -2.9462  -2.8666  -2.6933  -2.4971  -1.9595
    -1.5663  -1.5357  -1.3381  -1.2484  -1.1072  -0.8539  -0.6538  -0.6272
    -0.3577  -0.2218   0.0582   0.0797   0.1920   0.2114   0.8985   0.9182
     1.0921   1.1598   1.2155   1.3173   1.5762   1.5825   1.7688   2.0422
     2.0767   2.4566   2.5110   2.6621   2.7033   2.7946   2.8981   3.0942
     3.2489   3.4631   3.4830   3.6752   3.7337   4.1733

     occupation numbers 
     1.0000   1.0000   1.0000   1.0000   1.0000   1.0000   1.0000   1.0000
     1.0000   1.0000   1.0000   1.0000   1.0000   1.0000   1.0000   1.0000
     1.0000   1.0000   1.0000   1.0000   1.0000   1.0000   1.0000   1.0000
     1.0000   1.0000   1.0000   1.0000   1.0000   1.0000   1.0000   1.0000
     1.0000   1.0000   1.0000   1.0000   1.0000   1.0000   1.0000   1.0000
     1.0000   1.0000   1.0000   1.0000   1.0000   1.0000   1.0000   1.0000
     1.0000   1.0000   1.0000   1.0000   1.0000   1.0000   1.0000   1.0000
     1.0000   1.0000   1.0000   1.0000   1.0000   1.0000   1.0000   1.0000
     1.0000   1.0000   1.0000   1.0000   1.0017   1.0023   1.0375   0.0016
     0.0003   0.0000   0.0000   0.0000   0.0000   0.0000   0.0000   0.0000
     0.0000   0.0000   0.0000   0.0000   0.0000   0.0000

          k = 0.0000 0.2857 0.0839 ( 22277 PWs)   bands (ev):

   -53.1354 -53.1252 -53.1187 -53.1089 -52.9617 -52.9510 -52.9462 -52.9359
   -29.3719 -29.3491 -29.3443 -29.3262 -29.3075 -29.3032 -29.2694 -29.2512
   -29.1961 -29.1744 -29.1672 -29.1389 -29.1269 -29.1225 -29.1133 -29.1119
   -29.1045 -29.1041 -29.0964 -29.0962 -29.0131 -28.9869 -28.9164 -28.9007
    -9.7580  -8.8041  -8.3727  -8.3689  -8.2396  -7.6912  -7.4225  -7.4124
    -3.5212  -3.4886  -3.0196  -2.8863  -2.8585  -2.7629  -2.4891  -1.8348
    -1.6174  -1.4629  -1.4448  -1.3439  -1.3078  -0.8895  -0.8283  -0.6647
    -0.4757  -0.4669   0.1455   0.2160   0.4075   0.4982   0.5344   0.9330
     1.0826   1.1207   1.2095   1.3728   1.5123   1.5211   1.9379   2.0019
     2.0348   2.2497   2.2650   2.5613   2.5872   2.6014   2.7003   3.2905
     3.3974   3.4968   3.5795   3.6521   3.7477   3.8525

     occupation numbers 
     1.0000   1.0000   1.0000   1.0000   1.0000   1.0000   1.0000   1.0000
     1.0000   1.0000   1.0000   1.0000   1.0000   1.0000   1.0000   1.0000
     1.0000   1.0000   1.0000   1.0000   1.0000   1.0000   1.0000   1.0000
     1.0000   1.0000   1.0000   1.0000   1.0000   1.0000   1.0000   1.0000
     1.0000   1.0000   1.0000   1.0000   1.0000   1.0000   1.0000   1.0000
     1.0000   1.0000   1.0000   1.0000   1.0000   1.0000   1.0000   1.0000
     1.0000   1.0000   1.0000   1.0000   1.0000   1.0000   1.0000   1.0000
     1.0000   1.0000   1.0000   1.0000   1.0000   1.0000   1.0000   1.0000
     1.0000   1.0000   1.0000   1.0000   1.0001   1.0001   0.0900   0.0096
     0.0023   0.0000   0.0000   0.0000   0.0000   0.0000   0.0000   0.0000
     0.0000   0.0000   0.0000   0.0000   0.0000   0.0000

          k = 0.0000 0.2857-0.1118 ( 22291 PWs)   bands (ev):

   -53.1354 -53.1252 -53.1187 -53.1089 -52.9617 -52.9510 -52.9462 -52.9359
   -29.3719 -29.3491 -29.3443 -29.3262 -29.3075 -29.3033 -29.2694 -29.2512
   -29.1961 -29.1744 -29.1672 -29.1389 -29.1269 -29.1225 -29.1133 -29.1119
   -29.1045 -29.1041 -29.0964 -29.0962 -29.0132 -28.9869 -28.9164 -28.9008
    -9.7580  -8.8041  -8.3727  -8.3689  -8.2396  -7.6912  -7.4225  -7.4124
    -3.5212  -3.4886  -3.0196  -2.8863  -2.8585  -2.7629  -2.4891  -1.8348
    -1.6174  -1.4629  -1.4448  -1.3439  -1.3078  -0.8895  -0.8283  -0.6647
    -0.4757  -0.4669   0.1455   0.2160   0.4075   0.4982   0.5344   0.9330
     1.0826   1.1207   1.2095   1.3728   1.5123   1.5211   1.9379   2.0019
     2.0348   2.2497   2.2650   2.5613   2.5872   2.6014   2.7003   3.2905
     3.3974   3.4968   3.5795   3.6521   3.7477   3.8525

     occupation numbers 
     1.0000   1.0000   1.0000   1.0000   1.0000   1.0000   1.0000   1.0000
     1.0000   1.0000   1.0000   1.0000   1.0000   1.0000   1.0000   1.0000
     1.0000   1.0000   1.0000   1.0000   1.0000   1.0000   1.0000   1.0000
     1.0000   1.0000   1.0000   1.0000   1.0000   1.0000   1.0000   1.0000
     1.0000   1.0000   1.0000   1.0000   1.0000   1.0000   1.0000   1.0000
     1.0000   1.0000   1.0000   1.0000   1.0000   1.0000   1.0000   1.0000
     1.0000   1.0000   1.0000   1.0000   1.0000   1.0000   1.0000   1.0000
     1.0000   1.0000   1.0000   1.0000   1.0000   1.0000   1.0000   1.0000
     1.0000   1.0000   1.0000   1.0000   1.0001   1.0001   0.0900   0.0096
     0.0023   0.0000   0.0000   0.0000   0.0000   0.0000   0.0000   0.0000
     0.0000   0.0000   0.0000   0.0000   0.0000   0.0000

          k = 0.0000 0.4286 0.1258 ( 22311 PWs)   bands (ev):

   -53.1322 -53.1285 -53.1156 -53.1121 -52.9583 -52.9545 -52.9429 -52.9392
   -29.3630 -29.3532 -29.3200 -29.3164 -29.2945 -29.2661 -29.2641 -29.2537
   -29.2445 -29.2121 -29.1234 -29.1197 -29.1167 -29.1115 -29.1104 -29.1080
   -29.1069 -29.1016 -29.1014 -29.0905 -29.0655 -29.0362 -28.9113 -28.9058
    -9.4787  -9.1406  -8.3219  -8.2742  -8.1736  -7.9369  -7.4123  -7.4088
    -3.2707  -3.1503  -3.0251  -2.9274  -2.8523  -2.8168  -2.1268  -1.8736
    -1.8694  -1.6922  -1.3373  -1.2872  -1.1862  -1.0938  -1.0637  -0.9012
    -0.3768  -0.3123  -0.0608   0.0486   0.4023   0.6181   0.7450   0.8571
     1.0093   1.0969   1.3560   1.5509   1.5759   1.6905   1.8339   2.0026
     2.0477   2.0604   2.1625   2.2435   2.2754   2.4487   2.7624   3.0533
     3.4131   3.4965   3.5391   3.5809   3.7449   3.9579

     occupation numbers 
     1.0000   1.0000   1.0000   1.0000   1.0000   1.0000   1.0000   1.0000
     1.0000   1.0000   1.0000   1.0000   1.0000   1.0000   1.0000   1.0000
     1.0000   1.0000   1.0000   1.0000   1.0000   1.0000   1.0000   1.0000
     1.0000   1.0000   1.0000   1.0000   1.0000   1.0000   1.0000   1.0000
     1.0000   1.0000   1.0000   1.0000   1.0000   1.0000   1.0000   1.0000
     1.0000   1.0000   1.0000   1.0000   1.0000   1.0000   1.0000   1.0000
     1.0000   1.0000   1.0000   1.0000   1.0000   1.0000   1.0000   1.0000
     1.0000   1.0000   1.0000   1.0000   1.0000   1.0000   1.0000   1.0000
     1.0000   1.0000   1.0000   1.0005   1.0017   1.0578   0.6851   0.0094
     0.0012   0.0006   0.0000   0.0000   0.0000   0.0000   0.0000   0.0000
     0.0000   0.0000   0.0000   0.0000   0.0000   0.0000

          k = 0.0000 0.4286-0.0699 ( 22297 PWs)   bands (ev):

   -53.1322 -53.1285 -53.1156 -53.1121 -52.9583 -52.9545 -52.9429 -52.9392
   -29.3630 -29.3532 -29.3200 -29.3164 -29.2945 -29.2661 -29.2641 -29.2537
   -29.2445 -29.2121 -29.1234 -29.1197 -29.1167 -29.1115 -29.1104 -29.1079
   -29.1069 -29.1015 -29.1014 -29.0905 -29.0655 -29.0362 -28.9113 -28.9057
    -9.4787  -9.1406  -8.3219  -8.2742  -8.1736  -7.9369  -7.4123  -7.4088
    -3.2707  -3.1503  -3.0251  -2.9274  -2.8523  -2.8168  -2.1268  -1.8736
    -1.8694  -1.6922  -1.3373  -1.2872  -1.1862  -1.0938  -1.0637  -0.9012
    -0.3768  -0.3123  -0.0608   0.0486   0.4023   0.6181   0.7450   0.8571
     1.0093   1.0969   1.3560   1.5508   1.5759   1.6905   1.8339   2.0026
     2.0477   2.0604   2.1625   2.2435   2.2754   2.4487   2.7624   3.0533
     3.4131   3.4965   3.5391   3.5809   3.7449   3.9579

     occupation numbers 
     1.0000   1.0000   1.0000   1.0000   1.0000   1.0000   1.0000   1.0000
     1.0000   1.0000   1.0000   1.0000   1.0000   1.0000   1.0000   1.0000
     1.0000   1.0000   1.0000   1.0000   1.0000   1.0000   1.0000   1.0000
     1.0000   1.0000   1.0000   1.0000   1.0000   1.0000   1.0000   1.0000
     1.0000   1.0000   1.0000   1.0000   1.0000   1.0000   1.0000   1.0000
     1.0000   1.0000   1.0000   1.0000   1.0000   1.0000   1.0000   1.0000
     1.0000   1.0000   1.0000   1.0000   1.0000   1.0000   1.0000   1.0000
     1.0000   1.0000   1.0000   1.0000   1.0000   1.0000   1.0000   1.0000
     1.0000   1.0000   1.0000   1.0005   1.0017   1.0578   0.6851   0.0094
     0.0012   0.0006   0.0000   0.0000   0.0000   0.0000   0.0000   0.0000
     0.0000   0.0000   0.0000   0.0000   0.0000   0.0000

          k = 0.1429 0.1429 0.0839 ( 22246 PWs)   bands (ev):

   -53.1369 -53.1222 -53.1217 -53.1075 -52.9633 -52.9493 -52.9479 -52.9343
   -29.3792 -29.3673 -29.3401 -29.3280 -29.3278 -29.2971 -29.2726 -29.2475
   -29.2078 -29.1741 -29.1608 -29.1371 -29.1363 -29.1335 -29.1155 -29.1123
   -29.1086 -29.1036 -29.0865 -29.0850 -28.9753 -28.9537 -28.9313 -28.9081
    -9.8828  -8.5357  -8.5247  -8.4484  -8.2392  -7.4763  -7.4701  -7.4273
    -3.8308  -3.5279  -3.0608  -2.9706  -2.8306  -2.6226  -2.5894  -1.8133
    -1.7328  -1.5567  -1.2899  -1.2055  -1.1941  -0.7563  -0.7131  -0.6364
    -0.3842  -0.2579  -0.0793  -0.0612   0.2214   0.4405   0.9427   1.0087
     1.0161   1.0807   1.1393   1.2072   1.5435   1.5793   1.8035   1.9119
     2.0156   2.5014   2.5290   2.6053   2.7474   2.7810   2.8231   3.1593
     3.2202   3.3435   3.4102   3.5190   3.9946   4.1350

     occupation numbers 
     1.0000   1.0000   1.0000   1.0000   1.0000   1.0000   1.0000   1.0000
     1.0000   1.0000   1.0000   1.0000   1.0000   1.0000   1.0000   1.0000
     1.0000   1.0000   1.0000   1.0000   1.0000   1.0000   1.0000   1.0000
     1.0000   1.0000   1.0000   1.0000   1.0000   1.0000   1.0000   1.0000
     1.0000   1.0000   1.0000   1.0000   1.0000   1.0000   1.0000   1.0000
     1.0000   1.0000   1.0000   1.0000   1.0000   1.0000   1.0000   1.0000
     1.0000   1.0000   1.0000   1.0000   1.0000   1.0000   1.0000   1.0000
     1.0000   1.0000   1.0000   1.0000   1.0000   1.0000   1.0000   1.0000
     1.0000   1.0000   1.0000   1.0000   1.0004   1.0020   0.8897   0.1788
     0.0054   0.0000   0.0000   0.0000   0.0000   0.0000   0.0000   0.0000
     0.0000   0.0000   0.0000   0.0000   0.0000   0.0000

          k = 0.1429 0.1429-0.1118 ( 22283 PWs)   bands (ev):

   -53.1369 -53.1222 -53.1217 -53.1075 -52.9633 -52.9493 -52.9479 -52.9343
   -29.3793 -29.3673 -29.3401 -29.3280 -29.3278 -29.2972 -29.2726 -29.2475
   -29.2078 -29.1741 -29.1608 -29.1371 -29.1363 -29.1335 -29.1155 -29.1123
   -29.1086 -29.1036 -29.0865 -29.0851 -28.9753 -28.9537 -28.9313 -28.9081
    -9.8828  -8.5357  -8.5247  -8.4484  -8.2392  -7.4763  -7.4701  -7.4273
    -3.8308  -3.5279  -3.0608  -2.9706  -2.8306  -2.6226  -2.5894  -1.8133
    -1.7328  -1.5567  -1.2899  -1.2055  -1.1941  -0.7563  -0.7131  -0.6364
    -0.3842  -0.2579  -0.0793  -0.0612   0.2214   0.4405   0.9427   1.0087
     1.0161   1.0807   1.1393   1.2072   1.5435   1.5793   1.8035   1.9119
     2.0156   2.5014   2.5290   2.6053   2.7474   2.7810   2.8231   3.1593
     3.2202   3.3435   3.4102   3.5190   3.9946   4.1351

     occupation numbers 
     1.0000   1.0000   1.0000   1.0000   1.0000   1.0000   1.0000   1.0000
     1.0000   1.0000   1.0000   1.0000   1.0000   1.0000   1.0000   1.0000
     1.0000   1.0000   1.0000   1.0000   1.0000   1.0000   1.0000   1.0000
     1.0000   1.0000   1.0000   1.0000   1.0000   1.0000   1.0000   1.0000
     1.0000   1.0000   1.0000   1.0000   1.0000   1.0000   1.0000   1.0000
     1.0000   1.0000   1.0000   1.0000   1.0000   1.0000   1.0000   1.0000
     1.0000   1.0000   1.0000   1.0000   1.0000   1.0000   1.0000   1.0000
     1.0000   1.0000   1.0000   1.0000   1.0000   1.0000   1.0000   1.0000
     1.0000   1.0000   1.0000   1.0000   1.0004   1.0020   0.8897   0.1789
     0.0054   0.0000   0.0000   0.0000   0.0000   0.0000   0.0000   0.0000
     0.0000   0.0000   0.0000   0.0000   0.0000   0.0000

          k = 0.1429 0.2857 0.1258 ( 22288 PWs)   bands (ev):

   -53.1346 -53.1244 -53.1195 -53.1097 -52.9609 -52.9503 -52.9470 -52.9366
   -29.3613 -29.3472 -29.3342 -29.3236 -29.3093 -29.3008 -29.2689 -29.2511
   -29.1946 -29.1727 -29.1686 -29.1408 -29.1327 -29.1288 -29.1160 -29.1112
   -29.1081 -29.1050 -29.0911 -29.0887 -29.0119 -28.9882 -28.9278 -28.9117
    -9.7052  -8.7793  -8.4713  -8.3245  -8.2730  -7.6729  -7.4572  -7.4273
    -3.4651  -3.3748  -2.9079  -2.8830  -2.8064  -2.7553  -2.4278  -1.7380
    -1.5766  -1.5754  -1.4958  -1.3484  -1.2847  -0.9419  -0.8212  -0.7177
    -0.5305  -0.5069  -0.0377   0.0330   0.4617   0.5717   0.6769   0.7413
     0.9905   1.1546   1.2007   1.2884   1.5176   1.5653   1.8273   1.8891
     1.9506   2.1411   2.2331   2.5530   2.7325   2.7884   2.8327   3.2463
     3.3300   3.3348   3.4655   3.7846   3.8640   4.0160

     occupation numbers 
     1.0000   1.0000   1.0000   1.0000   1.0000   1.0000   1.0000   1.0000
     1.0000   1.0000   1.0000   1.0000   1.0000   1.0000   1.0000   1.0000
     1.0000   1.0000   1.0000   1.0000   1.0000   1.0000   1.0000   1.0000
     1.0000   1.0000   1.0000   1.0000   1.0000   1.0000   1.0000   1.0000
     1.0000   1.0000   1.0000   1.0000   1.0000   1.0000   1.0000   1.0000
     1.0000   1.0000   1.0000   1.0000   1.0000   1.0000   1.0000   1.0000
     1.0000   1.0000   1.0000   1.0000   1.0000   1.0000   1.0000   1.0000
     1.0000   1.0000   1.0000   1.0000   1.0000   1.0000   1.0000   1.0000
     1.0000   1.0000   1.0000   1.0000   1.0001   1.0011   0.7336   0.2955
     0.0614   0.0000   0.0000   0.0000   0.0000   0.0000   0.0000   0.0000
     0.0000   0.0000   0.0000   0.0000   0.0000   0.0000

          k = 0.1429 0.2857-0.0699 ( 22271 PWs)   bands (ev):

   -53.1346 -53.1244 -53.1195 -53.1097 -52.9609 -52.9503 -52.9470 -52.9366
   -29.3613 -29.3471 -29.3343 -29.3236 -29.3093 -29.3008 -29.2689 -29.2511
   -29.1946 -29.1727 -29.1686 -29.1407 -29.1327 -29.1288 -29.1160 -29.1112
   -29.1082 -29.1050 -29.0911 -29.0887 -29.0119 -28.9882 -28.9278 -28.9117
    -9.7052  -8.7793  -8.4713  -8.3245  -8.2730  -7.6729  -7.4572  -7.4273
    -3.4651  -3.3748  -2.9079  -2.8830  -2.8064  -2.7553  -2.4278  -1.7380
    -1.5766  -1.5754  -1.4958  -1.3484  -1.2847  -0.9419  -0.8212  -0.7177
    -0.5305  -0.5068  -0.0377   0.0330   0.4617   0.5717   0.6769   0.7413
     0.9905   1.1546   1.2007   1.2884   1.5176   1.5653   1.8273   1.8890
     1.9506   2.1411   2.2331   2.5529   2.7325   2.7884   2.8327   3.2463
     3.3300   3.3348   3.4655   3.7846   3.8640   4.0253

     occupation numbers 
     1.0000   1.0000   1.0000   1.0000   1.0000   1.0000   1.0000   1.0000
     1.0000   1.0000   1.0000   1.0000   1.0000   1.0000   1.0000   1.0000
     1.0000   1.0000   1.0000   1.0000   1.0000   1.0000   1.0000   1.0000
     1.0000   1.0000   1.0000   1.0000   1.0000   1.0000   1.0000   1.0000
     1.0000   1.0000   1.0000   1.0000   1.0000   1.0000   1.0000   1.0000
     1.0000   1.0000   1.0000   1.0000   1.0000   1.0000   1.0000   1.0000
     1.0000   1.0000   1.0000   1.0000   1.0000   1.0000   1.0000   1.0000
     1.0000   1.0000   1.0000   1.0000   1.0000   1.0000   1.0000   1.0000
     1.0000   1.0000   1.0000   1.0000   1.0001   1.0011   0.7336   0.2955
     0.0614   0.0000   0.0000   0.0000   0.0000   0.0000   0.0000   0.0000
     0.0000   0.0000   0.0000   0.0000   0.0000   0.0000

          k = 0.1429 0.4286 0.1677 ( 22293 PWs)   bands (ev):

   -53.1313 -53.1277 -53.1164 -53.1129 -52.9575 -52.9537 -52.9436 -52.9400
   -29.3526 -29.3429 -29.3175 -29.3141 -29.2926 -29.2673 -29.2637 -29.2540
   -29.2429 -29.2137 -29.1274 -29.1225 -29.1221 -29.1206 -29.1148 -29.1049
   -29.0999 -29.0982 -29.0939 -29.0917 -29.0641 -29.0377 -28.9226 -28.9169
    -9.4329  -9.1044  -8.3998  -8.3288  -8.1364  -7.9087  -7.4425  -7.4317
    -3.1705  -3.0869  -2.9578  -2.8608  -2.7676  -2.7558  -2.0964  -1.8289
    -1.8037  -1.7028  -1.3601  -1.3497  -1.1643  -1.1302  -1.0655  -0.8986
    -0.6142  -0.5464  -0.0573   0.0987   0.2400   0.3739   0.7211   0.9220
     0.9983   1.1521   1.3932   1.5602   1.6083   1.6255   1.7092   1.7947
     1.8392   1.8398   2.0912   2.2933   2.6620   2.7347   2.8855   3.0775
     3.3453   3.3517   3.6420   3.7693   3.7714   3.8361

     occupation numbers 
     1.0000   1.0000   1.0000   1.0000   1.0000   1.0000   1.0000   1.0000
     1.0000   1.0000   1.0000   1.0000   1.0000   1.0000   1.0000   1.0000
     1.0000   1.0000   1.0000   1.0000   1.0000   1.0000   1.0000   1.0000
     1.0000   1.0000   1.0000   1.0000   1.0000   1.0000   1.0000   1.0000
     1.0000   1.0000   1.0000   1.0000   1.0000   1.0000   1.0000   1.0000
     1.0000   1.0000   1.0000   1.0000   1.0000   1.0000   1.0000   1.0000
     1.0000   1.0000   1.0000   1.0000   1.0000   1.0000   1.0000   1.0000
     1.0000   1.0000   1.0000   1.0000   1.0000   1.0000   1.0000   1.0000
     1.0000   1.0000   1.0000   1.0008   1.0063   1.0115   1.0740   0.9376
     0.6458   0.6417   0.0001   0.0000   0.0000   0.0000   0.0000   0.0000
     0.0000   0.0000   0.0000   0.0000   0.0000   0.0000

          k = 0.1429 0.4286-0.0280 ( 22310 PWs)   bands (ev):

   -53.1313 -53.1277 -53.1164 -53.1129 -52.9575 -52.9537 -52.9436 -52.9400
   -29.3526 -29.3429 -29.3175 -29.3141 -29.2926 -29.2673 -29.2638 -29.2540
   -29.2429 -29.2137 -29.1274 -29.1225 -29.1221 -29.1206 -29.1148 -29.1049
   -29.0999 -29.0981 -29.0939 -29.0917 -29.0641 -29.0377 -28.9226 -28.9169
    -9.4329  -9.1044  -8.3998  -8.3288  -8.1364  -7.9087  -7.4425  -7.4317
    -3.1705  -3.0869  -2.9578  -2.8608  -2.7676  -2.7558  -2.0964  -1.8289
    -1.8037  -1.7028  -1.3601  -1.3497  -1.1643  -1.1302  -1.0655  -0.8986
    -0.6142  -0.5464  -0.0573   0.0987   0.2400   0.3739   0.7211   0.9220
     0.9983   1.1521   1.3932   1.5601   1.6083   1.6255   1.7092   1.7947
     1.8392   1.8398   2.0912   2.2933   2.6620   2.7347   2.8855   3.0775
     3.3453   3.3517   3.6420   3.7693   3.7714   3.8361

     occupation numbers 
     1.0000   1.0000   1.0000   1.0000   1.0000   1.0000   1.0000   1.0000
     1.0000   1.0000   1.0000   1.0000   1.0000   1.0000   1.0000   1.0000
     1.0000   1.0000   1.0000   1.0000   1.0000   1.0000   1.0000   1.0000
     1.0000   1.0000   1.0000   1.0000   1.0000   1.0000   1.0000   1.0000
     1.0000   1.0000   1.0000   1.0000   1.0000   1.0000   1.0000   1.0000
     1.0000   1.0000   1.0000   1.0000   1.0000   1.0000   1.0000   1.0000
     1.0000   1.0000   1.0000   1.0000   1.0000   1.0000   1.0000   1.0000
     1.0000   1.0000   1.0000   1.0000   1.0000   1.0000   1.0000   1.0000
     1.0000   1.0000   1.0000   1.0008   1.0063   1.0115   1.0740   0.9376
     0.6458   0.6417   0.0001   0.0000   0.0000   0.0000   0.0000   0.0000
     0.0000   0.0000   0.0000   0.0000   0.0000   0.0000

          k = 0.1429-0.4286-0.0839 ( 22321 PWs)   bands (ev):

   -53.1313 -53.1277 -53.1164 -53.1129 -52.9575 -52.9537 -52.9437 -52.9400
   -29.3526 -29.3429 -29.3175 -29.3141 -29.2926 -29.2673 -29.2638 -29.2540
   -29.2429 -29.2137 -29.1274 -29.1225 -29.1221 -29.1206 -29.1148 -29.1049
   -29.0999 -29.0982 -29.0939 -29.0917 -29.0641 -29.0377 -28.9226 -28.9169
    -9.4329  -9.1044  -8.3998  -8.3288  -8.1364  -7.9087  -7.4425  -7.4317
    -3.1705  -3.0869  -2.9578  -2.8608  -2.7676  -2.7558  -2.0964  -1.8289
    -1.8037  -1.7028  -1.3601  -1.3497  -1.1643  -1.1302  -1.0655  -0.8986
    -0.6142  -0.5464  -0.0573   0.0987   0.2400   0.3739   0.7211   0.9220
     0.9983   1.1521   1.3932   1.5601   1.6083   1.6255   1.7092   1.7947
     1.8392   1.8398   2.0912   2.2933   2.6620   2.7347   2.8855   3.0775
     3.3453   3.3517   3.6420   3.7693   3.7714   3.8361

     occupation numbers 
     1.0000   1.0000   1.0000   1.0000   1.0000   1.0000   1.0000   1.0000
     1.0000   1.0000   1.0000   1.0000   1.0000   1.0000   1.0000   1.0000
     1.0000   1.0000   1.0000   1.0000   1.0000   1.0000   1.0000   1.0000
     1.0000   1.0000   1.0000   1.0000   1.0000   1.0000   1.0000   1.0000
     1.0000   1.0000   1.0000   1.0000   1.0000   1.0000   1.0000   1.0000
     1.0000   1.0000   1.0000   1.0000   1.0000   1.0000   1.0000   1.0000
     1.0000   1.0000   1.0000   1.0000   1.0000   1.0000   1.0000   1.0000
     1.0000   1.0000   1.0000   1.0000   1.0000   1.0000   1.0000   1.0000
     1.0000   1.0000   1.0000   1.0008   1.0063   1.0115   1.0740   0.9376
     0.6458   0.6417   0.0001   0.0000   0.0000   0.0000   0.0000   0.0000
     0.0000   0.0000   0.0000   0.0000   0.0000   0.0000

          k = 0.1429-0.4286-0.2795 ( 22332 PWs)   bands (ev):

   -53.1313 -53.1277 -53.1164 -53.1129 -52.9575 -52.9537 -52.9436 -52.9400
   -29.3526 -29.3429 -29.3175 -29.3141 -29.2926 -29.2673 -29.2637 -29.2540
   -29.2429 -29.2137 -29.1274 -29.1225 -29.1221 -29.1206 -29.1148 -29.1049
   -29.0999 -29.0982 -29.0939 -29.0917 -29.0641 -29.0377 -28.9226 -28.9169
    -9.4329  -9.1044  -8.3998  -8.3288  -8.1364  -7.9087  -7.4425  -7.4317
    -3.1705  -3.0869  -2.9578  -2.8608  -2.7676  -2.7558  -2.0964  -1.8289
    -1.8037  -1.7028  -1.3601  -1.3497  -1.1643  -1.1302  -1.0655  -0.8986
    -0.6142  -0.5464  -0.0573   0.0987   0.2400   0.3739   0.7211   0.9220
     0.9983   1.1521   1.3932   1.5601   1.6082   1.6255   1.7092   1.7947
     1.8392   1.8398   2.0912   2.2933   2.6620   2.7347   2.8855   3.0775
     3.3453   3.3517   3.6420   3.7693   3.7714   3.8361

     occupation numbers 
     1.0000   1.0000   1.0000   1.0000   1.0000   1.0000   1.0000   1.0000
     1.0000   1.0000   1.0000   1.0000   1.0000   1.0000   1.0000   1.0000
     1.0000   1.0000   1.0000   1.0000   1.0000   1.0000   1.0000   1.0000
     1.0000   1.0000   1.0000   1.0000   1.0000   1.0000   1.0000   1.0000
     1.0000   1.0000   1.0000   1.0000   1.0000   1.0000   1.0000   1.0000
     1.0000   1.0000   1.0000   1.0000   1.0000   1.0000   1.0000   1.0000
     1.0000   1.0000   1.0000   1.0000   1.0000   1.0000   1.0000   1.0000
     1.0000   1.0000   1.0000   1.0000   1.0000   1.0000   1.0000   1.0000
     1.0000   1.0000   1.0000   1.0008   1.0063   1.0115   1.0740   0.9376
     0.6459   0.6418   0.0001   0.0000   0.0000   0.0000   0.0000   0.0000
     0.0000   0.0000   0.0000   0.0000   0.0000   0.0000

          k = 0.1429-0.2857-0.0419 ( 22289 PWs)   bands (ev):

   -53.1346 -53.1244 -53.1195 -53.1097 -52.9609 -52.9503 -52.9470 -52.9366
   -29.3613 -29.3472 -29.3342 -29.3236 -29.3093 -29.3008 -29.2689 -29.2511
   -29.1946 -29.1727 -29.1686 -29.1408 -29.1327 -29.1288 -29.1161 -29.1112
   -29.1081 -29.1050 -29.0911 -29.0887 -29.0118 -28.9882 -28.9278 -28.9117
    -9.7052  -8.7793  -8.4713  -8.3245  -8.2730  -7.6729  -7.4572  -7.4273
    -3.4651  -3.3748  -2.9079  -2.8830  -2.8064  -2.7553  -2.4278  -1.7380
    -1.5766  -1.5755  -1.4958  -1.3484  -1.2847  -0.9419  -0.8212  -0.7177
    -0.5305  -0.5068  -0.0377   0.0330   0.4617   0.5717   0.6769   0.7413
     0.9905   1.1546   1.2007   1.2884   1.5176   1.5653   1.8273   1.8890
     1.9506   2.1411   2.2331   2.5530   2.7325   2.7884   2.8327   3.2462
     3.3300   3.3348   3.4655   3.7846   3.8640   4.0160

     occupation numbers 
     1.0000   1.0000   1.0000   1.0000   1.0000   1.0000   1.0000   1.0000
     1.0000   1.0000   1.0000   1.0000   1.0000   1.0000   1.0000   1.0000
     1.0000   1.0000   1.0000   1.0000   1.0000   1.0000   1.0000   1.0000
     1.0000   1.0000   1.0000   1.0000   1.0000   1.0000   1.0000   1.0000
     1.0000   1.0000   1.0000   1.0000   1.0000   1.0000   1.0000   1.0000
     1.0000   1.0000   1.0000   1.0000   1.0000   1.0000   1.0000   1.0000
     1.0000   1.0000   1.0000   1.0000   1.0000   1.0000   1.0000   1.0000
     1.0000   1.0000   1.0000   1.0000   1.0000   1.0000   1.0000   1.0000
     1.0000   1.0000   1.0000   1.0000   1.0001   1.0011   0.7336   0.2955
     0.0614   0.0000   0.0000   0.0000   0.0000   0.0000   0.0000   0.0000
     0.0000   0.0000   0.0000   0.0000   0.0000   0.0000

          k = 0.1429-0.2857-0.2376 ( 22288 PWs)   bands (ev):

   -53.1346 -53.1244 -53.1195 -53.1097 -52.9609 -52.9503 -52.9470 -52.9366
   -29.3613 -29.3471 -29.3342 -29.3236 -29.3093 -29.3009 -29.2689 -29.2511
   -29.1946 -29.1727 -29.1686 -29.1407 -29.1327 -29.1288 -29.1160 -29.1112
   -29.1082 -29.1050 -29.0911 -29.0887 -29.0119 -28.9882 -28.9278 -28.9117
    -9.7052  -8.7793  -8.4713  -8.3245  -8.2730  -7.6729  -7.4572  -7.4273
    -3.4651  -3.3748  -2.9079  -2.8830  -2.8064  -2.7553  -2.4278  -1.7380
    -1.5766  -1.5754  -1.4958  -1.3484  -1.2847  -0.9419  -0.8212  -0.7177
    -0.5305  -0.5068  -0.0377   0.0330   0.4617   0.5717   0.6769   0.7413
     0.9905   1.1546   1.2007   1.2884   1.5176   1.5653   1.8273   1.8891
     1.9506   2.1411   2.2331   2.5530   2.7325   2.7884   2.8327   3.2462
     3.3300   3.3348   3.4655   3.7846   3.8640   4.0160

     occupation numbers 
     1.0000   1.0000   1.0000   1.0000   1.0000   1.0000   1.0000   1.0000
     1.0000   1.0000   1.0000   1.0000   1.0000   1.0000   1.0000   1.0000
     1.0000   1.0000   1.0000   1.0000   1.0000   1.0000   1.0000   1.0000
     1.0000   1.0000   1.0000   1.0000   1.0000   1.0000   1.0000   1.0000
     1.0000   1.0000   1.0000   1.0000   1.0000   1.0000   1.0000   1.0000
     1.0000   1.0000   1.0000   1.0000   1.0000   1.0000   1.0000   1.0000
     1.0000   1.0000   1.0000   1.0000   1.0000   1.0000   1.0000   1.0000
     1.0000   1.0000   1.0000   1.0000   1.0000   1.0000   1.0000   1.0000
     1.0000   1.0000   1.0000   1.0000   1.0001   1.0011   0.7336   0.2955
     0.0614   0.0000   0.0000   0.0000   0.0000   0.0000   0.0000   0.0000
     0.0000   0.0000   0.0000   0.0000   0.0000   0.0000

          k = 0.1429-0.1429-0.0000 ( 22272 PWs)   bands (ev):

   -53.1369 -53.1222 -53.1217 -53.1075 -52.9633 -52.9493 -52.9479 -52.9343
   -29.3793 -29.3673 -29.3401 -29.3280 -29.3278 -29.2971 -29.2726 -29.2475
   -29.2078 -29.1741 -29.1609 -29.1371 -29.1364 -29.1335 -29.1155 -29.1123
   -29.1086 -29.1036 -29.0865 -29.0850 -28.9753 -28.9537 -28.9313 -28.9081
    -9.8828  -8.5357  -8.5247  -8.4484  -8.2392  -7.4763  -7.4701  -7.4273
    -3.8308  -3.5279  -3.0608  -2.9706  -2.8306  -2.6226  -2.5894  -1.8134
    -1.7328  -1.5567  -1.2899  -1.2055  -1.1941  -0.7563  -0.7131  -0.6364
    -0.3842  -0.2579  -0.0793  -0.0612   0.2214   0.4405   0.9427   1.0087
     1.0161   1.0807   1.1393   1.2072   1.5435   1.5793   1.8035   1.9119
     2.0156   2.5014   2.5290   2.6053   2.7474   2.7810   2.8231   3.1593
     3.2202   3.3435   3.4102   3.5190   3.9946   4.1351

     occupation numbers 
     1.0000   1.0000   1.0000   1.0000   1.0000   1.0000   1.0000   1.0000
     1.0000   1.0000   1.0000   1.0000   1.0000   1.0000   1.0000   1.0000
     1.0000   1.0000   1.0000   1.0000   1.0000   1.0000   1.0000   1.0000
     1.0000   1.0000   1.0000   1.0000   1.0000   1.0000   1.0000   1.0000
     1.0000   1.0000   1.0000   1.0000   1.0000   1.0000   1.0000   1.0000
     1.0000   1.0000   1.0000   1.0000   1.0000   1.0000   1.0000   1.0000
     1.0000   1.0000   1.0000   1.0000   1.0000   1.0000   1.0000   1.0000
     1.0000   1.0000   1.0000   1.0000   1.0000   1.0000   1.0000   1.0000
     1.0000   1.0000   1.0000   1.0000   1.0004   1.0020   0.8897   0.1788
     0.0054   0.0000   0.0000   0.0000   0.0000   0.0000   0.0000   0.0000
     0.0000   0.0000   0.0000   0.0000   0.0000   0.0000

          k = 0.1429-0.1429-0.1957 ( 22276 PWs)   bands (ev):

   -53.1369 -53.1222 -53.1217 -53.1075 -52.9633 -52.9493 -52.9479 -52.9343
   -29.3793 -29.3673 -29.3402 -29.3280 -29.3278 -29.2971 -29.2726 -29.2476
   -29.2078 -29.1741 -29.1608 -29.1371 -29.1363 -29.1335 -29.1155 -29.1123
   -29.1086 -29.1037 -29.0865 -29.0850 -28.9753 -28.9537 -28.9313 -28.9081
    -9.8828  -8.5357  -8.5247  -8.4484  -8.2392  -7.4763  -7.4701  -7.4273
    -3.8308  -3.5279  -3.0608  -2.9706  -2.8306  -2.6226  -2.5894  -1.8134
    -1.7328  -1.5567  -1.2899  -1.2055  -1.1941  -0.7563  -0.7131  -0.6364
    -0.3842  -0.2579  -0.0793  -0.0612   0.2214   0.4405   0.9427   1.0087
     1.0161   1.0807   1.1393   1.2072   1.5435   1.5793   1.8035   1.9119
     2.0156   2.5014   2.5290   2.6053   2.7474   2.7810   2.8231   3.1593
     3.2202   3.3435   3.4102   3.5190   3.9946   4.1350

     occupation numbers 
     1.0000   1.0000   1.0000   1.0000   1.0000   1.0000   1.0000   1.0000
     1.0000   1.0000   1.0000   1.0000   1.0000   1.0000   1.0000   1.0000
     1.0000   1.0000   1.0000   1.0000   1.0000   1.0000   1.0000   1.0000
     1.0000   1.0000   1.0000   1.0000   1.0000   1.0000   1.0000   1.0000
     1.0000   1.0000   1.0000   1.0000   1.0000   1.0000   1.0000   1.0000
     1.0000   1.0000   1.0000   1.0000   1.0000   1.0000   1.0000   1.0000
     1.0000   1.0000   1.0000   1.0000   1.0000   1.0000   1.0000   1.0000
     1.0000   1.0000   1.0000   1.0000   1.0000   1.0000   1.0000   1.0000
     1.0000   1.0000   1.0000   1.0000   1.0004   1.0020   0.8897   0.1788
     0.0054   0.0000   0.0000   0.0000   0.0000   0.0000   0.0000   0.0000
     0.0000   0.0000   0.0000   0.0000   0.0000   0.0000

          k = 0.2857 0.2857 0.1677 ( 22304 PWs)   bands (ev):

   -53.1323 -53.1222 -53.1219 -53.1120 -52.9588 -52.9491 -52.9482 -52.9387
   -29.3415 -29.3335 -29.3172 -29.3167 -29.3052 -29.2943 -29.2680 -29.2509
   -29.1907 -29.1726 -29.1680 -29.1678 -29.1505 -29.1458 -29.1236 -29.1047
   -29.1041 -29.0880 -29.0875 -29.0668 -29.0083 -28.9918 -28.9593 -28.9420
    -9.5522  -8.7175  -8.7086  -8.3616  -8.1982  -7.6232  -7.5919  -7.4481
    -3.3147  -3.0446  -2.8924  -2.6943  -2.6647  -2.6433  -2.2791  -1.8320
    -1.6370  -1.5240  -1.4891  -1.4422  -1.1843  -1.0779  -1.0256  -0.8599
    -0.6108  -0.4621  -0.2934  -0.0786   0.2074   0.5168   0.5786   0.7479
     0.9859   1.0370   1.2256   1.2967   1.3394   1.6849   1.7819   1.8321
     1.8330   1.8694   2.2147   2.3969   2.9798   3.0070   3.0784   3.1563
     3.2120   3.2514   3.3630   3.7505   3.8244   4.1846

     occupation numbers 
     1.0000   1.0000   1.0000   1.0000   1.0000   1.0000   1.0000   1.0000
     1.0000   1.0000   1.0000   1.0000   1.0000   1.0000   1.0000   1.0000
     1.0000   1.0000   1.0000   1.0000   1.0000   1.0000   1.0000   1.0000
     1.0000   1.0000   1.0000   1.0000   1.0000   1.0000   1.0000   1.0000
     1.0000   1.0000   1.0000   1.0000   1.0000   1.0000   1.0000   1.0000
     1.0000   1.0000   1.0000   1.0000   1.0000   1.0000   1.0000   1.0000
     1.0000   1.0000   1.0000   1.0000   1.0000   1.0000   1.0000   1.0000
     1.0000   1.0000   1.0000   1.0000   1.0000   1.0000   1.0000   1.0000
     1.0000   1.0000   1.0000   1.0000   1.0000   1.0525   0.9946   0.6988
     0.6921   0.4227   0.0000   0.0000   0.0000   0.0000   0.0000   0.0000
     0.0000   0.0000   0.0000   0.0000   0.0000   0.0000

          k = 0.2857 0.2857-0.0280 ( 22255 PWs)   bands (ev):

   -53.1323 -53.1222 -53.1219 -53.1120 -52.9588 -52.9491 -52.9482 -52.9387
   -29.3415 -29.3335 -29.3172 -29.3166 -29.3052 -29.2943 -29.2680 -29.2509
   -29.1907 -29.1726 -29.1680 -29.1678 -29.1504 -29.1457 -29.1236 -29.1046
   -29.1041 -29.0880 -29.0875 -29.0667 -29.0083 -28.9918 -28.9593 -28.9420
    -9.5522  -8.7175  -8.7086  -8.3616  -8.1982  -7.6232  -7.5919  -7.4481
    -3.3147  -3.0446  -2.8924  -2.6943  -2.6647  -2.6433  -2.2791  -1.8320
    -1.6370  -1.5240  -1.4891  -1.4422  -1.1843  -1.0779  -1.0256  -0.8599
    -0.6108  -0.4621  -0.2934  -0.0786   0.2074   0.5168   0.5786   0.7479
     0.9859   1.0370   1.2256   1.2967   1.3394   1.6849   1.7819   1.8321
     1.8330   1.8694   2.2147   2.3969   2.9798   3.0070   3.0784   3.1563
     3.2119   3.2514   3.3630   3.7505   3.8244   4.1846

     occupation numbers 
     1.0000   1.0000   1.0000   1.0000   1.0000   1.0000   1.0000   1.0000
     1.0000   1.0000   1.0000   1.0000   1.0000   1.0000   1.0000   1.0000
     1.0000   1.0000   1.0000   1.0000   1.0000   1.0000   1.0000   1.0000
     1.0000   1.0000   1.0000   1.0000   1.0000   1.0000   1.0000   1.0000
     1.0000   1.0000   1.0000   1.0000   1.0000   1.0000   1.0000   1.0000
     1.0000   1.0000   1.0000   1.0000   1.0000   1.0000   1.0000   1.0000
     1.0000   1.0000   1.0000   1.0000   1.0000   1.0000   1.0000   1.0000
     1.0000   1.0000   1.0000   1.0000   1.0000   1.0000   1.0000   1.0000
     1.0000   1.0000   1.0000   1.0000   1.0000   1.0525   0.9946   0.6988
     0.6921   0.4227   0.0000   0.0000   0.0000   0.0000   0.0000   0.0000
     0.0000   0.0000   0.0000   0.0000   0.0000   0.0000

          k = 0.2857 0.4286 0.2096 ( 22292 PWs)   bands (ev):

   -53.1290 -53.1254 -53.1187 -53.1152 -52.9554 -52.9516 -52.9458 -52.9421
   -29.3253 -29.3164 -29.3107 -29.3076 -29.2872 -29.2706 -29.2630 -29.2549
   -29.2383 -29.2181 -29.1624 -29.1561 -29.1174 -29.1172 -29.1105 -29.0994
   -29.0969 -29.0932 -29.0812 -29.0732 -29.0601 -29.0416 -28.9537 -28.9476
    -9.3007  -9.0009  -8.5985  -8.4711  -8.0311  -7.8298  -7.5449  -7.4938
    -2.9147  -2.8755  -2.7622  -2.6712  -2.6445  -2.5097  -2.0519  -1.7830
    -1.7739  -1.6904  -1.4455  -1.4209  -1.2622  -1.1144  -1.1053  -1.0189
    -0.9683  -0.8381  -0.2116  -0.1095   0.0196   0.2233   0.6225   0.6957
     1.2073   1.2085   1.2930   1.3553   1.4407   1.6200   1.6548   1.6799
     1.7235   1.7327   2.0717   2.2031   2.9993   3.0851   3.1231   3.1521
     3.3063   3.4307   3.4450   3.6247   3.9628   4.0373

     occupation numbers 
     1.0000   1.0000   1.0000   1.0000   1.0000   1.0000   1.0000   1.0000
     1.0000   1.0000   1.0000   1.0000   1.0000   1.0000   1.0000   1.0000
     1.0000   1.0000   1.0000   1.0000   1.0000   1.0000   1.0000   1.0000
     1.0000   1.0000   1.0000   1.0000   1.0000   1.0000   1.0000   1.0000
     1.0000   1.0000   1.0000   1.0000   1.0000   1.0000   1.0000   1.0000
     1.0000   1.0000   1.0000   1.0000   1.0000   1.0000   1.0000   1.0000
     1.0000   1.0000   1.0000   1.0000   1.0000   1.0000   1.0000   1.0000
     1.0000   1.0000   1.0000   1.0000   1.0000   1.0000   1.0000   1.0000
     1.0000   1.0000   1.0000   1.0000   1.0000   1.0096   1.0271   1.0478
     1.0820   1.0833   0.0003   0.0000   0.0000   0.0000   0.0000   0.0000
     0.0000   0.0000   0.0000   0.0000   0.0000   0.0000

          k = 0.2857 0.4286 0.0140 ( 22271 PWs)   bands (ev):

   -53.1290 -53.1254 -53.1187 -53.1152 -52.9554 -52.9516 -52.9458 -52.9421
   -29.3253 -29.3164 -29.3107 -29.3076 -29.2872 -29.2705 -29.2630 -29.2548
   -29.2384 -29.2181 -29.1624 -29.1561 -29.1174 -29.1172 -29.1105 -29.0994
   -29.0969 -29.0932 -29.0811 -29.0732 -29.0601 -29.0416 -28.9537 -28.9476
    -9.3007  -9.0009  -8.5985  -8.4711  -8.0311  -7.8298  -7.5449  -7.4938
    -2.9147  -2.8755  -2.7622  -2.6712  -2.6445  -2.5097  -2.0519  -1.7830
    -1.7739  -1.6904  -1.4455  -1.4209  -1.2622  -1.1144  -1.1053  -1.0189
    -0.9683  -0.8381  -0.2116  -0.1095   0.0196   0.2233   0.6225   0.6957
     1.2073   1.2085   1.2930   1.3553   1.4407   1.6200   1.6548   1.6799
     1.7235   1.7327   2.0717   2.2031   2.9994   3.0851   3.1231   3.1521
     3.3063   3.4307   3.4449   3.6247   3.9629   4.0373

     occupation numbers 
     1.0000   1.0000   1.0000   1.0000   1.0000   1.0000   1.0000   1.0000
     1.0000   1.0000   1.0000   1.0000   1.0000   1.0000   1.0000   1.0000
     1.0000   1.0000   1.0000   1.0000   1.0000   1.0000   1.0000   1.0000
     1.0000   1.0000   1.0000   1.0000   1.0000   1.0000   1.0000   1.0000
     1.0000   1.0000   1.0000   1.0000   1.0000   1.0000   1.0000   1.0000
     1.0000   1.0000   1.0000   1.0000   1.0000   1.0000   1.0000   1.0000
     1.0000   1.0000   1.0000   1.0000   1.0000   1.0000   1.0000   1.0000
     1.0000   1.0000   1.0000   1.0000   1.0000   1.0000   1.0000   1.0000
     1.0000   1.0000   1.0000   1.0000   1.0000   1.0096   1.0271   1.0478
     1.0820   1.0833   0.0003   0.0000   0.0000   0.0000   0.0000   0.0000
     0.0000   0.0000   0.0000   0.0000   0.0000   0.0000

          k = 0.2857-0.4286-0.0419 ( 22291 PWs)   bands (ev):

   -53.1290 -53.1254 -53.1187 -53.1152 -52.9554 -52.9516 -52.9458 -52.9421
   -29.3253 -29.3164 -29.3107 -29.3076 -29.2872 -29.2706 -29.2630 -29.2549
   -29.2384 -29.2181 -29.1624 -29.1562 -29.1174 -29.1172 -29.1105 -29.0994
   -29.0969 -29.0932 -29.0812 -29.0732 -29.0601 -29.0416 -28.9537 -28.9476
    -9.3007  -9.0009  -8.5985  -8.4711  -8.0311  -7.8298  -7.5449  -7.4938
    -2.9147  -2.8755  -2.7622  -2.6712  -2.6445  -2.5097  -2.0519  -1.7830
    -1.7739  -1.6904  -1.4455  -1.4209  -1.2622  -1.1144  -1.1053  -1.0189
    -0.9683  -0.8381  -0.2116  -0.1095   0.0196   0.2233   0.6225   0.6957
     1.2073   1.2085   1.2930   1.3553   1.4407   1.6200   1.6548   1.6799
     1.7235   1.7327   2.0717   2.2031   2.9994   3.0851   3.1231   3.1521
     3.3063   3.4307   3.4449   3.6247   3.9630   4.0373

     occupation numbers 
     1.0000   1.0000   1.0000   1.0000   1.0000   1.0000   1.0000   1.0000
     1.0000   1.0000   1.0000   1.0000   1.0000   1.0000   1.0000   1.0000
     1.0000   1.0000   1.0000   1.0000   1.0000   1.0000   1.0000   1.0000
     1.0000   1.0000   1.0000   1.0000   1.0000   1.0000   1.0000   1.0000
     1.0000   1.0000   1.0000   1.0000   1.0000   1.0000   1.0000   1.0000
     1.0000   1.0000   1.0000   1.0000   1.0000   1.0000   1.0000   1.0000
     1.0000   1.0000   1.0000   1.0000   1.0000   1.0000   1.0000   1.0000
     1.0000   1.0000   1.0000   1.0000   1.0000   1.0000   1.0000   1.0000
     1.0000   1.0000   1.0000   1.0000   1.0000   1.0096   1.0271   1.0478
     1.0820   1.0833   0.0003   0.0000   0.0000   0.0000   0.0000   0.0000
     0.0000   0.0000   0.0000   0.0000   0.0000   0.0000

          k = 0.2857-0.4286-0.2376 ( 22275 PWs)   bands (ev):

   -53.1290 -53.1254 -53.1187 -53.1152 -52.9554 -52.9516 -52.9458 -52.9421
   -29.3253 -29.3164 -29.3107 -29.3076 -29.2872 -29.2706 -29.2630 -29.2549
   -29.2383 -29.2181 -29.1624 -29.1561 -29.1173 -29.1172 -29.1105 -29.0994
   -29.0969 -29.0932 -29.0811 -29.0732 -29.0601 -29.0415 -28.9537 -28.9476
    -9.3007  -9.0009  -8.5985  -8.4711  -8.0311  -7.8298  -7.5449  -7.4938
    -2.9147  -2.8755  -2.7622  -2.6712  -2.6445  -2.5097  -2.0519  -1.7830
    -1.7739  -1.6904  -1.4455  -1.4209  -1.2622  -1.1144  -1.1053  -1.0189
    -0.9683  -0.8381  -0.2116  -0.1095   0.0196   0.2233   0.6225   0.6957
     1.2073   1.2085   1.2930   1.3553   1.4407   1.6200   1.6548   1.6799
     1.7235   1.7327   2.0717   2.2031   2.9993   3.0851   3.1231   3.1521
     3.3063   3.4307   3.4450   3.6247   3.9628   4.0373

     occupation numbers 
     1.0000   1.0000   1.0000   1.0000   1.0000   1.0000   1.0000   1.0000
     1.0000   1.0000   1.0000   1.0000   1.0000   1.0000   1.0000   1.0000
     1.0000   1.0000   1.0000   1.0000   1.0000   1.0000   1.0000   1.0000
     1.0000   1.0000   1.0000   1.0000   1.0000   1.0000   1.0000   1.0000
     1.0000   1.0000   1.0000   1.0000   1.0000   1.0000   1.0000   1.0000
     1.0000   1.0000   1.0000   1.0000   1.0000   1.0000   1.0000   1.0000
     1.0000   1.0000   1.0000   1.0000   1.0000   1.0000   1.0000   1.0000
     1.0000   1.0000   1.0000   1.0000   1.0000   1.0000   1.0000   1.0000
     1.0000   1.0000   1.0000   1.0000   1.0000   1.0096   1.0271   1.0478
     1.0820   1.0833   0.0003   0.0000   0.0000   0.0000   0.0000   0.0000
     0.0000   0.0000   0.0000   0.0000   0.0000   0.0000

          k = 0.2857-0.2857 0.0000 ( 22264 PWs)   bands (ev):

   -53.1323 -53.1222 -53.1219 -53.1120 -52.9588 -52.9491 -52.9482 -52.9387
   -29.3415 -29.3335 -29.3172 -29.3166 -29.3052 -29.2943 -29.2680 -29.2509
   -29.1907 -29.1726 -29.1680 -29.1678 -29.1505 -29.1457 -29.1236 -29.1046
   -29.1041 -29.0880 -29.0875 -29.0668 -29.0083 -28.9918 -28.9592 -28.9420
    -9.5522  -8.7175  -8.7086  -8.3616  -8.1982  -7.6232  -7.5919  -7.4481
    -3.3147  -3.0446  -2.8924  -2.6943  -2.6647  -2.6433  -2.2791  -1.8320
    -1.6370  -1.5240  -1.4891  -1.4422  -1.1843  -1.0779  -1.0256  -0.8599
    -0.6108  -0.4621  -0.2934  -0.0786   0.2074   0.5168   0.5786   0.7479
     0.9859   1.0370   1.2256   1.2967   1.3394   1.6849   1.7819   1.8321
     1.8330   1.8694   2.2147   2.3969   2.9798   3.0070   3.0784   3.1563
     3.2119   3.2514   3.3630   3.7505   3.8244   4.1851

     occupation numbers 
     1.0000   1.0000   1.0000   1.0000   1.0000   1.0000   1.0000   1.0000
     1.0000   1.0000   1.0000   1.0000   1.0000   1.0000   1.0000   1.0000
     1.0000   1.0000   1.0000   1.0000   1.0000   1.0000   1.0000   1.0000
     1.0000   1.0000   1.0000   1.0000   1.0000   1.0000   1.0000   1.0000
     1.0000   1.0000   1.0000   1.0000   1.0000   1.0000   1.0000   1.0000
     1.0000   1.0000   1.0000   1.0000   1.0000   1.0000   1.0000   1.0000
     1.0000   1.0000   1.0000   1.0000   1.0000   1.0000   1.0000   1.0000
     1.0000   1.0000   1.0000   1.0000   1.0000   1.0000   1.0000   1.0000
     1.0000   1.0000   1.0000   1.0000   1.0000   1.0525   0.9946   0.6988
     0.6921   0.4227   0.0000   0.0000   0.0000   0.0000   0.0000   0.0000
     0.0000   0.0000   0.0000   0.0000   0.0000   0.0000

          k = 0.2857-0.2857-0.1957 ( 22280 PWs)   bands (ev):

   -53.1323 -53.1222 -53.1219 -53.1120 -52.9588 -52.9491 -52.9482 -52.9387
   -29.3415 -29.3335 -29.3172 -29.3167 -29.3052 -29.2943 -29.2680 -29.2509
   -29.1907 -29.1726 -29.1680 -29.1678 -29.1505 -29.1457 -29.1236 -29.1047
   -29.1041 -29.0880 -29.0875 -29.0667 -29.0083 -28.9918 -28.9593 -28.9420
    -9.5522  -8.7175  -8.7086  -8.3616  -8.1982  -7.6232  -7.5919  -7.4481
    -3.3147  -3.0446  -2.8924  -2.6943  -2.6647  -2.6433  -2.2791  -1.8320
    -1.6370  -1.5240  -1.4891  -1.4422  -1.1843  -1.0779  -1.0256  -0.8599
    -0.6108  -0.4621  -0.2934  -0.0786   0.2074   0.5168   0.5786   0.7479
     0.9859   1.0370   1.2256   1.2967   1.3394   1.6849   1.7819   1.8321
     1.8330   1.8694   2.2147   2.3969   2.9798   3.0070   3.0784   3.1563
     3.2120   3.2514   3.3630   3.7505   3.8244   4.1845

     occupation numbers 
     1.0000   1.0000   1.0000   1.0000   1.0000   1.0000   1.0000   1.0000
[...]
     0.0000   0.0000   0.0000   0.0000   0.0000   0.0000

          k =-0.4286-0.1429 0.0280 ( 22310 PWs)   bands (ev):

   -53.1312 -53.1274 -53.1167 -53.1130 -52.9580 -52.9546 -52.9428 -52.9394
   -29.3646 -29.3550 -29.3129 -29.3126 -29.2821 -29.2794 -29.2594 -29.2331
   -29.2184 -29.1951 -29.1911 -29.1868 -29.1519 -29.1461 -29.1193 -29.1122
   -29.0931 -29.0874 -29.0547 -29.0251 -29.0082 -28.9804 -28.9671 -28.9618
    -9.4598  -9.1389  -8.4302  -8.3581  -8.0987  -7.8539  -7.4295  -7.4148
    -3.4369  -3.2148  -2.7802  -2.6603  -2.6229  -2.4929  -2.4299  -2.1399
    -2.0111  -1.9075  -1.1033  -0.9816  -0.8879  -0.8730  -0.8687  -0.8522
    -0.6480  -0.6106   0.0096   0.0430   0.3575   0.4061   0.6888   0.7060
     0.7386   0.8029   1.4087   1.4379   1.6290   1.6844   1.7476   1.7721
     1.9597   2.0403   2.1918   2.2770   2.7463   2.7626   2.8834   2.9386
     3.1597   3.1787   3.5527   3.7755   3.7781   4.0235

     occupation numbers 
     1.0000   1.0000   1.0000   1.0000   1.0000   1.0000   1.0000   1.0000
     1.0000   1.0000   1.0000   1.0000   1.0000   1.0000   1.0000   1.0000
     1.0000   1.0000   1.0000   1.0000   1.0000   1.0000   1.0000   1.0000
     1.0000   1.0000   1.0000   1.0000   1.0000   1.0000   1.0000   1.0000
     1.0000   1.0000   1.0000   1.0000   1.0000   1.0000   1.0000   1.0000
     1.0000   1.0000   1.0000   1.0000   1.0000   1.0000   1.0000   1.0000
     1.0000   1.0000   1.0000   1.0000   1.0000   1.0000   1.0000   1.0000
     1.0000   1.0000   1.0000   1.0000   1.0000   1.0000   1.0000   1.0000
     1.0000   1.0000   1.0000   1.0000   1.0128   1.0520   1.0758   1.0283
     0.0459   0.0017   0.0000   0.0000   0.0000   0.0000   0.0000   0.0000
     0.0000   0.0000   0.0000   0.0000   0.0000   0.0000

          k = 0.4286-0.1429 0.0839 ( 22321 PWs)   bands (ev):

   -53.1312 -53.1274 -53.1167 -53.1130 -52.9580 -52.9545 -52.9428 -52.9394
   -29.3646 -29.3549 -29.3129 -29.3126 -29.2821 -29.2794 -29.2594 -29.2331
   -29.2184 -29.1952 -29.1911 -29.1868 -29.1519 -29.1460 -29.1192 -29.1122
   -29.0931 -29.0874 -29.0546 -29.0251 -29.0082 -28.9804 -28.9671 -28.9618
    -9.4598  -9.1389  -8.4302  -8.3581  -8.0987  -7.8539  -7.4295  -7.4148
    -3.4369  -3.2148  -2.7802  -2.6603  -2.6229  -2.4929  -2.4299  -2.1399
    -2.0111  -1.9075  -1.1033  -0.9816  -0.8879  -0.8730  -0.8687  -0.8522
    -0.6480  -0.6106   0.0096   0.0430   0.3575   0.4061   0.6888   0.7060
     0.7386   0.8029   1.4087   1.4379   1.6290   1.6844   1.7476   1.7721
     1.9597   2.0403   2.1918   2.2770   2.7463   2.7626   2.8834   2.9386
     3.1597   3.1787   3.5527   3.7754   3.7781   4.0217

     occupation numbers 
     1.0000   1.0000   1.0000   1.0000   1.0000   1.0000   1.0000   1.0000
     1.0000   1.0000   1.0000   1.0000   1.0000   1.0000   1.0000   1.0000
     1.0000   1.0000   1.0000   1.0000   1.0000   1.0000   1.0000   1.0000
     1.0000   1.0000   1.0000   1.0000   1.0000   1.0000   1.0000   1.0000
     1.0000   1.0000   1.0000   1.0000   1.0000   1.0000   1.0000   1.0000
     1.0000   1.0000   1.0000   1.0000   1.0000   1.0000   1.0000   1.0000
     1.0000   1.0000   1.0000   1.0000   1.0000   1.0000   1.0000   1.0000
     1.0000   1.0000   1.0000   1.0000   1.0000   1.0000   1.0000   1.0000
     1.0000   1.0000   1.0000   1.0000   1.0128   1.0520   1.0758   1.0283
     0.0459   0.0017   0.0000   0.0000   0.0000   0.0000   0.0000   0.0000
     0.0000   0.0000   0.0000   0.0000   0.0000   0.0000

          k = 0.4286-0.1429 0.2795 ( 22332 PWs)   bands (ev):

   -53.1312 -53.1274 -53.1167 -53.1130 -52.9580 -52.9546 -52.9428 -52.9394
   -29.3646 -29.3550 -29.3129 -29.3126 -29.2821 -29.2794 -29.2594 -29.2331
   -29.2184 -29.1951 -29.1911 -29.1869 -29.1519 -29.1461 -29.1193 -29.1122
   -29.0931 -29.0874 -29.0547 -29.0251 -29.0082 -28.9804 -28.9671 -28.9618
    -9.4598  -9.1389  -8.4302  -8.3581  -8.0987  -7.8539  -7.4295  -7.4148
    -3.4369  -3.2148  -2.7802  -2.6603  -2.6229  -2.4929  -2.4299  -2.1399
    -2.0111  -1.9075  -1.1033  -0.9816  -0.8879  -0.8730  -0.8687  -0.8522
    -0.6480  -0.6106   0.0096   0.0430   0.3575   0.4061   0.6888   0.7060
     0.7386   0.8029   1.4087   1.4380   1.6290   1.6844   1.7476   1.7721
     1.9597   2.0403   2.1918   2.2770   2.7463   2.7626   2.8834   2.9386
     3.1597   3.1787   3.5527   3.7754   3.7781   4.0221

     occupation numbers 
     1.0000   1.0000   1.0000   1.0000   1.0000   1.0000   1.0000   1.0000
     1.0000   1.0000   1.0000   1.0000   1.0000   1.0000   1.0000   1.0000
     1.0000   1.0000   1.0000   1.0000   1.0000   1.0000   1.0000   1.0000
     1.0000   1.0000   1.0000   1.0000   1.0000   1.0000   1.0000   1.0000
     1.0000   1.0000   1.0000   1.0000   1.0000   1.0000   1.0000   1.0000
     1.0000   1.0000   1.0000   1.0000   1.0000   1.0000   1.0000   1.0000
     1.0000   1.0000   1.0000   1.0000   1.0000   1.0000   1.0000   1.0000
     1.0000   1.0000   1.0000   1.0000   1.0000   1.0000   1.0000   1.0000
     1.0000   1.0000   1.0000   1.0000   1.0128   1.0520   1.0758   1.0283
     0.0459   0.0017   0.0000   0.0000   0.0000   0.0000   0.0000   0.0000
     0.0000   0.0000   0.0000   0.0000   0.0000   0.0000

          k = 0.2857-0.1429 0.0419 ( 22289 PWs)   bands (ev):

   -53.1345 -53.1241 -53.1199 -53.1098 -52.9611 -52.9514 -52.9458 -52.9364
   -29.3733 -29.3462 -29.3392 -29.3210 -29.3013 -29.2906 -29.2716 -29.2473
   -29.2026 -29.1793 -29.1721 -29.1571 -29.1465 -29.1408 -29.1281 -29.1083
   -29.0998 -29.0920 -29.0843 -29.0621 -28.9723 -28.9631 -28.9570 -28.9382
    -9.7175  -8.8017  -8.4930  -8.3087  -8.2896  -7.6254  -7.4541  -7.4162
    -3.6640  -3.1965  -3.0541  -2.7938  -2.7395  -2.6741  -2.4342  -2.0802
    -1.7636  -1.5051  -1.3568  -1.1506  -1.0869  -0.8891  -0.7106  -0.6888
    -0.4713  -0.3652  -0.1514  -0.1317   0.4020   0.5283   0.8022   0.8401
     0.8573   0.9909   1.1688   1.2448   1.5244   1.6750   1.8225   1.8805
     1.9219   2.1394   2.3786   2.5597   2.7004   2.7283   2.9530   3.1913
     3.2249   3.2479   3.3544   3.4229   3.9596   4.2923

     occupation numbers 
     1.0000   1.0000   1.0000   1.0000   1.0000   1.0000   1.0000   1.0000
     1.0000   1.0000   1.0000   1.0000   1.0000   1.0000   1.0000   1.0000
     1.0000   1.0000   1.0000   1.0000   1.0000   1.0000   1.0000   1.0000
     1.0000   1.0000   1.0000   1.0000   1.0000   1.0000   1.0000   1.0000
     1.0000   1.0000   1.0000   1.0000   1.0000   1.0000   1.0000   1.0000
     1.0000   1.0000   1.0000   1.0000   1.0000   1.0000   1.0000   1.0000
     1.0000   1.0000   1.0000   1.0000   1.0000   1.0000   1.0000   1.0000
     1.0000   1.0000   1.0000   1.0000   1.0000   1.0000   1.0000   1.0000
     1.0000   1.0000   1.0000   1.0000   1.0001   1.0433   0.7678   0.3481
     0.1392   0.0000   0.0000   0.0000   0.0000   0.0000   0.0000   0.0000
     0.0000   0.0000   0.0000   0.0000   0.0000   0.0000

          k = 0.2857-0.1429 0.2376 ( 22288 PWs)   bands (ev):

   -53.1345 -53.1241 -53.1199 -53.1098 -52.9611 -52.9514 -52.9458 -52.9364
   -29.3733 -29.3462 -29.3392 -29.3210 -29.3013 -29.2905 -29.2716 -29.2473
   -29.2026 -29.1793 -29.1721 -29.1571 -29.1465 -29.1407 -29.1280 -29.1083
   -29.0998 -29.0920 -29.0843 -29.0621 -28.9723 -28.9631 -28.9570 -28.9381
    -9.7175  -8.8017  -8.4930  -8.3087  -8.2896  -7.6254  -7.4541  -7.4162
    -3.6640  -3.1965  -3.0541  -2.7938  -2.7395  -2.6741  -2.4342  -2.0802
    -1.7636  -1.5051  -1.3568  -1.1506  -1.0869  -0.8891  -0.7106  -0.6888
    -0.4713  -0.3652  -0.1514  -0.1318   0.4020   0.5283   0.8022   0.8401
     0.8573   0.9909   1.1688   1.2448   1.5244   1.6750   1.8225   1.8805
     1.9219   2.1394   2.3786   2.5597   2.7004   2.7283   2.9530   3.1913
     3.2249   3.2479   3.3544   3.4229   3.9596   4.2921

     occupation numbers 
     1.0000   1.0000   1.0000   1.0000   1.0000   1.0000   1.0000   1.0000
     1.0000   1.0000   1.0000   1.0000   1.0000   1.0000   1.0000   1.0000
     1.0000   1.0000   1.0000   1.0000   1.0000   1.0000   1.0000   1.0000
     1.0000   1.0000   1.0000   1.0000   1.0000   1.0000   1.0000   1.0000
     1.0000   1.0000   1.0000   1.0000   1.0000   1.0000   1.0000   1.0000
     1.0000   1.0000   1.0000   1.0000   1.0000   1.0000   1.0000   1.0000
     1.0000   1.0000   1.0000   1.0000   1.0000   1.0000   1.0000   1.0000
     1.0000   1.0000   1.0000   1.0000   1.0000   1.0000   1.0000   1.0000
     1.0000   1.0000   1.0000   1.0000   1.0001   1.0433   0.7678   0.3481
     0.1392   0.0000   0.0000   0.0000   0.0000   0.0000   0.0000   0.0000
     0.0000   0.0000   0.0000   0.0000   0.0000   0.0000

          k =-0.4286-0.2857-0.2096 ( 22292 PWs)   bands (ev):

   -53.1289 -53.1252 -53.1189 -53.1153 -52.9557 -52.9522 -52.9451 -52.9418
   -29.3333 -29.3243 -29.3083 -29.3080 -29.2859 -29.2835 -29.2554 -29.2372
   -29.2143 -29.1953 -29.1847 -29.1784 -29.1608 -29.1529 -29.1152 -29.1084
   -29.0971 -29.0912 -29.0503 -29.0296 -29.0068 -29.0000 -28.9969 -28.9847
    -9.3150  -9.0218  -8.6033  -8.4803  -8.0097  -7.7922  -7.5568  -7.4928
    -3.1229  -2.9655  -2.5725  -2.5313  -2.4960  -2.4014  -2.2960  -1.9529
    -1.9144  -1.7543  -1.4673  -1.3317  -1.2046  -1.0372  -0.9989  -0.9934
    -0.7289  -0.6528  -0.3319  -0.1625   0.1207   0.3964   0.5186   0.5551
     0.8577   0.9253   1.3469   1.4519   1.4541   1.6161   1.6604   1.6746
     1.9292   1.9393   2.0798   2.1736   2.9677   2.9934   3.1045   3.1191
     3.3229   3.4420   3.4646   3.6524   3.7731   4.1150

     occupation numbers 
     1.0000   1.0000   1.0000   1.0000   1.0000   1.0000   1.0000   1.0000
     1.0000   1.0000   1.0000   1.0000   1.0000   1.0000   1.0000   1.0000
     1.0000   1.0000   1.0000   1.0000   1.0000   1.0000   1.0000   1.0000
     1.0000   1.0000   1.0000   1.0000   1.0000   1.0000   1.0000   1.0000
     1.0000   1.0000   1.0000   1.0000   1.0000   1.0000   1.0000   1.0000
     1.0000   1.0000   1.0000   1.0000   1.0000   1.0000   1.0000   1.0000
     1.0000   1.0000   1.0000   1.0000   1.0000   1.0000   1.0000   1.0000
     1.0000   1.0000   1.0000   1.0000   1.0000   1.0000   1.0000   1.0000
     1.0000   1.0000   1.0000   1.0000   1.0000   1.0083   1.0312   1.0430
     0.1149   0.0865   0.0002   0.0000   0.0000   0.0000   0.0000   0.0000
     0.0000   0.0000   0.0000   0.0000   0.0000   0.0000

          k =-0.4286-0.2857-0.0140 ( 22271 PWs)   bands (ev):

   -53.1289 -53.1252 -53.1189 -53.1153 -52.9557 -52.9522 -52.9451 -52.9418
   -29.3333 -29.3243 -29.3082 -29.3080 -29.2859 -29.2835 -29.2554 -29.2372
   -29.2143 -29.1953 -29.1847 -29.1784 -29.1608 -29.1529 -29.1152 -29.1084
   -29.0971 -29.0912 -29.0503 -29.0296 -29.0068 -29.0000 -28.9969 -28.9847
    -9.3150  -9.0218  -8.6033  -8.4803  -8.0097  -7.7922  -7.5568  -7.4928
    -3.1229  -2.9655  -2.5725  -2.5313  -2.4960  -2.4014  -2.2960  -1.9529
    -1.9144  -1.7543  -1.4673  -1.3317  -1.2046  -1.0372  -0.9989  -0.9934
    -0.7289  -0.6528  -0.3319  -0.1625   0.1207   0.3964   0.5186   0.5551
     0.8577   0.9253   1.3469   1.4519   1.4541   1.6161   1.6604   1.6746
     1.9291   1.9393   2.0798   2.1736   2.9677   2.9934   3.1045   3.1191
     3.3229   3.4420   3.4646   3.6524   3.7731   4.1150

     occupation numbers 
     1.0000   1.0000   1.0000   1.0000   1.0000   1.0000   1.0000   1.0000
     1.0000   1.0000   1.0000   1.0000   1.0000   1.0000   1.0000   1.0000
     1.0000   1.0000   1.0000   1.0000   1.0000   1.0000   1.0000   1.0000
     1.0000   1.0000   1.0000   1.0000   1.0000   1.0000   1.0000   1.0000
     1.0000   1.0000   1.0000   1.0000   1.0000   1.0000   1.0000   1.0000
     1.0000   1.0000   1.0000   1.0000   1.0000   1.0000   1.0000   1.0000
     1.0000   1.0000   1.0000   1.0000   1.0000   1.0000   1.0000   1.0000
     1.0000   1.0000   1.0000   1.0000   1.0000   1.0000   1.0000   1.0000
     1.0000   1.0000   1.0000   1.0000   1.0000   1.0083   1.0312   1.0430
     0.1149   0.0865   0.0002   0.0000   0.0000   0.0000   0.0000   0.0000
     0.0000   0.0000   0.0000   0.0000   0.0000   0.0000

          k = 0.4286-0.2857 0.0419 ( 22291 PWs)   bands (ev):

   -53.1289 -53.1252 -53.1189 -53.1153 -52.9557 -52.9522 -52.9451 -52.9418
   -29.3333 -29.3243 -29.3082 -29.3080 -29.2859 -29.2835 -29.2554 -29.2372
   -29.2143 -29.1953 -29.1847 -29.1784 -29.1608 -29.1529 -29.1152 -29.1084
   -29.0971 -29.0912 -29.0503 -29.0296 -29.0068 -29.0000 -28.9969 -28.9847
    -9.3150  -9.0218  -8.6033  -8.4803  -8.0097  -7.7922  -7.5568  -7.4928
    -3.1229  -2.9655  -2.5725  -2.5313  -2.4960  -2.4014  -2.2960  -1.9529
    -1.9144  -1.7543  -1.4673  -1.3317  -1.2046  -1.0372  -0.9989  -0.9934
    -0.7289  -0.6528  -0.3319  -0.1625   0.1207   0.3964   0.5186   0.5551
     0.8577   0.9253   1.3469   1.4519   1.4541   1.6161   1.6604   1.6746
     1.9292   1.9393   2.0798   2.1736   2.9677   2.9934   3.1045   3.1190
     3.3229   3.4420   3.4646   3.6524   3.7731   4.1150

     occupation numbers 
     1.0000   1.0000   1.0000   1.0000   1.0000   1.0000   1.0000   1.0000
     1.0000   1.0000   1.0000   1.0000   1.0000   1.0000   1.0000   1.0000
     1.0000   1.0000   1.0000   1.0000   1.0000   1.0000   1.0000   1.0000
     1.0000   1.0000   1.0000   1.0000   1.0000   1.0000   1.0000   1.0000
     1.0000   1.0000   1.0000   1.0000   1.0000   1.0000   1.0000   1.0000
     1.0000   1.0000   1.0000   1.0000   1.0000   1.0000   1.0000   1.0000
     1.0000   1.0000   1.0000   1.0000   1.0000   1.0000   1.0000   1.0000
     1.0000   1.0000   1.0000   1.0000   1.0000   1.0000   1.0000   1.0000
     1.0000   1.0000   1.0000   1.0000   1.0000   1.0083   1.0312   1.0430
     0.1149   0.0865   0.0002   0.0000   0.0000   0.0000   0.0000   0.0000
     0.0000   0.0000   0.0000   0.0000   0.0000   0.0000

          k = 0.4286-0.2857 0.2376 ( 22275 PWs)   bands (ev):

   -53.1289 -53.1252 -53.1189 -53.1153 -52.9557 -52.9522 -52.9451 -52.9418
   -29.3333 -29.3243 -29.3082 -29.3080 -29.2859 -29.2835 -29.2554 -29.2372
   -29.2143 -29.1953 -29.1847 -29.1784 -29.1608 -29.1529 -29.1152 -29.1084
   -29.0971 -29.0912 -29.0503 -29.0296 -29.0067 -29.0000 -28.9969 -28.9846
    -9.3150  -9.0218  -8.6033  -8.4803  -8.0097  -7.7922  -7.5568  -7.4928
    -3.1228  -2.9655  -2.5725  -2.5313  -2.4960  -2.4014  -2.2960  -1.9529
    -1.9144  -1.7543  -1.4673  -1.3317  -1.2046  -1.0372  -0.9989  -0.9934
    -0.7289  -0.6528  -0.3319  -0.1625   0.1207   0.3964   0.5186   0.5551
     0.8577   0.9253   1.3469   1.4519   1.4541   1.6161   1.6604   1.6746
     1.9292   1.9393   2.0798   2.1736   2.9677   2.9934   3.1045   3.1191
     3.3229   3.4420   3.4646   3.6524   3.7731   4.1150

     occupation numbers 
     1.0000   1.0000   1.0000   1.0000   1.0000   1.0000   1.0000   1.0000
     1.0000   1.0000   1.0000   1.0000   1.0000   1.0000   1.0000   1.0000
     1.0000   1.0000   1.0000   1.0000   1.0000   1.0000   1.0000   1.0000
     1.0000   1.0000   1.0000   1.0000   1.0000   1.0000   1.0000   1.0000
     1.0000   1.0000   1.0000   1.0000   1.0000   1.0000   1.0000   1.0000
     1.0000   1.0000   1.0000   1.0000   1.0000   1.0000   1.0000   1.0000
     1.0000   1.0000   1.0000   1.0000   1.0000   1.0000   1.0000   1.0000
     1.0000   1.0000   1.0000   1.0000   1.0000   1.0000   1.0000   1.0000
     1.0000   1.0000   1.0000   1.0000   1.0000   1.0083   1.0312   1.0430
     0.1149   0.0865   0.0002   0.0000   0.0000   0.0000   0.0000   0.0000
     0.0000   0.0000   0.0000   0.0000   0.0000   0.0000

     the Fermi energy is     1.8726 ev

!    total energy              =   -2752.80770511 Ry
     estimated scf accuracy    <          5.2E-10 Ry
     smearing contrib. (-TS)   =      -0.00006241 Ry
     internal energy E=F+TS    =   -2752.80764270 Ry

     The total energy is F=E-TS. E is the sum of the following terms:
     one-electron contribution =   -4263.81721934 Ry
     hartree contribution      =    2146.79841907 Ry
     xc contribution           =    -264.32977954 Ry
     ewald contribution        =    1263.78741144 Ry
     one-center paw contrib.   =   -1635.24647433 Ry
      -> PAW hartree energy AE =     546.96122188 Ry
      -> PAW hartree energy PS =    -543.92645736 Ry
      -> PAW xc energy AE      =   -1853.04857545 Ry
      -> PAW xc energy PS      =     214.76733659 Ry
      -> total E_H with PAW    =    2149.83318359 Ry
      -> total E_XC with PAW   =   -1902.61101839 Ry

     convergence has been achieved in  24 iterations

     Writing all to output data dir ./out/NbP.supercell.save/
 
     init_run     :     59.56s CPU     61.28s WALL (       1 calls)
     electrons    :   3646.00s CPU   3711.91s WALL (       1 calls)

     Called by init_run:
     wfcinit      :     55.16s CPU     56.25s WALL (       1 calls)
     wfcinit:atom :      0.56s CPU      0.92s WALL (      50 calls)
     wfcinit:wfcr :     50.46s CPU     50.88s WALL (      50 calls)
     potinit      :      1.60s CPU      1.66s WALL (       1 calls)
     hinit0       :      1.27s CPU      1.33s WALL (       1 calls)

     Called by electrons:
     c_bands      :   3036.97s CPU   3077.69s WALL (      24 calls)
     sum_band     :    548.68s CPU    561.06s WALL (      24 calls)
     v_of_rho     :      7.91s CPU      8.47s WALL (      25 calls)
     v_h          :      0.46s CPU      0.55s WALL (      25 calls)
     v_xc         :      7.45s CPU      7.92s WALL (      25 calls)
     newd         :     33.15s CPU     45.71s WALL (      25 calls)
     PAW_pot      :     19.46s CPU     19.47s WALL (      25 calls)
     mix_rho      :      1.52s CPU      1.59s WALL (      24 calls)

     Called by c_bands:
     init_us_2    :     38.15s CPU     38.18s WALL (    2450 calls)
     init_us_2:cp :     38.14s CPU     38.17s WALL (    2450 calls)
     cegterg      :   2666.67s CPU   2706.36s WALL (    1200 calls)

     Called by sum_band:
     sum_band:wei :      0.15s CPU      0.15s WALL (      24 calls)
     sum_band:loo :    488.50s CPU    488.93s WALL (      24 calls)
     sum_band:buf :      5.86s CPU      5.96s WALL (    1200 calls)
     sum_band:ini :     18.68s CPU     18.68s WALL (    1200 calls)
     sum_band:cal :     65.44s CPU     65.45s WALL (    1200 calls)
     sum_band:bec :      0.14s CPU      0.14s WALL (    1200 calls)
     addusdens    :     59.53s CPU     71.48s WALL (      24 calls)
                                        0.00s GPU  (      24 calls)
     addusd:skk   :      0.62s CPU      1.01s WALL (      48 calls)
                                        0.00s GPU  (      48 calls)

     Called by *egterg:
     cdiaghg      :     32.76s CPU     32.82s WALL (    6145 calls)
     cegterg:over :    154.95s CPU    155.04s WALL (    4945 calls)
     cegterg:upda :    107.86s CPU    113.86s WALL (    4945 calls)
     cegterg:last :    179.09s CPU    179.14s WALL (    2447 calls)
     h_psi        :   1943.22s CPU   1958.32s WALL (    6195 calls)
     s_psi        :    213.33s CPU    213.44s WALL (    6195 calls)
     g_psi        :      7.43s CPU      7.45s WALL (    4945 calls)

     Called by h_psi:
     h_psi:calbec :    185.03s CPU    185.09s WALL (    6195 calls)
     vloc_psi     :   1534.69s CPU   1536.40s WALL (    6195 calls)
     add_vuspsi   :    212.78s CPU    212.86s WALL (    6195 calls)

     General routines
     calbec       :    250.43s CPU    250.53s WALL (    7395 calls)
     fft          :      2.50s CPU      2.54s WALL (     323 calls)
     ffts         :      0.14s CPU      0.14s WALL (      49 calls)
     fftw         :   1302.82s CPU   1304.00s WALL (  601578 calls)
     interpolate  :      0.40s CPU      0.40s WALL (      25 calls)
 
     Parallel routines

     PAW routines
     PAW_pot      :     19.46s CPU     19.47s WALL (      25 calls)
 
     PWSCF        :      1h 1m CPU      1h 3m WALL

 
   This run was terminated on:  18:44:59  12Feb2024            

=------------------------------------------------------------------------------=
   JOB DONE.
=------------------------------------------------------------------------------=
