
     Program BANDS v.7.2 starts on 13Feb2024 at 10:51:41 

     This program is part of the open-source Quantum ESPRESSO suite
     for quantum simulation of materials; please cite
         "P. Giannozzi et al., J. Phys.:Condens. Matter 21 395502 (2009);
         "P. Giannozzi et al., J. Phys.:Condens. Matter 29 465901 (2017);
         "P. Giannozzi et al., J. Chem. Phys. 152 154105 (2020);
          URL http://www.quantum-espresso.org", 
     in publications or presentations arising from this work. More details at
     http://www.quantum-espresso.org/quote

     Parallel version (MPI), running on     1 processors

     MPI processes distributed on     1 nodes
     3201 MiB available memory on the printing compute node when the environment starts


     Reading xml data from directory:

     ./out/NbP.supercell.save/
     file Nb.pbesol-spn-kjpaw_psl.0.3.0.UPF: wavefunction(s)  4S 4P renormalized

     IMPORTANT: XC functional enforced from input :
     Exchange-correlation= PBESOL
                           (   1   4  10   8   0   0   0)
     Any further DFT definition will be discarded
     Please, verify this is what you really want


     G-vector sticks info
     --------------------
     sticks:   dense  smooth     PW     G-vecs:    dense   smooth      PW
     Sum        4093    2053    569               504019   178409   25911

     Using Slab Decomposition


     Check: negative core charge=   -0.000001

     negative rho (up, down):  7.067E-04 0.000E+00
     Reading collected, re-writing distributed wavefunctions
     high-symmetry point:  0.0000 0.0000 0.0000   x coordinate   0.0000
     high-symmetry point:  0.0000 0.0000-0.1957   x coordinate   0.1957
     high-symmetry point:  0.0000 0.1429 0.0419   x coordinate   0.4729
     high-symmetry point:  0.0000 0.1429-0.1537   x coordinate   0.6685
     high-symmetry point:  0.0000 0.2857 0.0839   x coordinate   0.9458
     high-symmetry point:  0.0000 0.2857-0.1118   x coordinate   1.1414
     high-symmetry point:  0.0000 0.4286 0.1258   x coordinate   1.4187
     high-symmetry point:  0.0000 0.4286-0.0699   x coordinate   1.6143
     high-symmetry point:  0.1429 0.1429 0.0839   x coordinate   1.9688
     high-symmetry point:  0.1429 0.1429-0.1118   x coordinate   2.1645
     high-symmetry point:  0.1429 0.2857 0.1258   x coordinate   2.4417
     high-symmetry point:  0.1429 0.2857-0.0699   x coordinate   2.6374
     high-symmetry point:  0.1429 0.4286 0.1677   x coordinate   2.9146
     high-symmetry point:  0.1429 0.4286-0.0280   x coordinate   3.1102
     high-symmetry point:  0.1429-0.4286-0.0839   x coordinate   3.9692
     high-symmetry point:  0.1429-0.4286-0.2795   x coordinate   4.1649
     high-symmetry point:  0.1429-0.2857-0.0419   x coordinate   4.4421
     high-symmetry point:  0.1429-0.2857-0.2376   x coordinate   4.6377
     high-symmetry point:  0.1429-0.1429-0.0000   x coordinate   4.9150
     high-symmetry point:  0.1429-0.1429-0.1957   x coordinate   5.1106
     high-symmetry point:  0.2857 0.2857 0.1677   x coordinate   5.6904
     high-symmetry point:  0.2857 0.2857-0.0280   x coordinate   5.8860
     high-symmetry point:  0.2857 0.4286 0.2096   x coordinate   6.1633
     high-symmetry point:  0.2857 0.4286 0.0140   x coordinate   6.3589
     high-symmetry point:  0.2857-0.4286-0.0419   x coordinate   7.2179
     high-symmetry point:  0.2857-0.4286-0.2376   x coordinate   7.4135
     high-symmetry point:  0.2857-0.2857 0.0000   x coordinate   7.6908
     high-symmetry point:  0.2857-0.2857-0.1957   x coordinate   7.8864
     high-symmetry point:  0.4286 0.4286 0.2516   x coordinate   8.7412
     high-symmetry point:  0.4286 0.4286 0.0559   x coordinate   8.9368
     high-symmetry point:  0.4286-0.4286-0.0000   x coordinate   9.7958
     high-symmetry point:  0.4286-0.4286-0.1957   x coordinate   9.9915
     high-symmetry point: -0.1429 0.0000-0.0419   x coordinate  10.7221
     high-symmetry point: -0.1429 0.0000 0.1537   x coordinate  10.9178
     high-symmetry point: -0.2857 0.0000-0.0839   x coordinate  11.1950
     high-symmetry point: -0.2857 0.0000 0.1118   x coordinate  11.3906
     high-symmetry point: -0.4286 0.0000-0.1258   x coordinate  11.6679
     high-symmetry point: -0.4286 0.0000 0.0699   x coordinate  11.8635
     high-symmetry point: -0.2857-0.1429-0.1258   x coordinate  12.1448
     high-symmetry point: -0.2857-0.1429 0.0699   x coordinate  12.3404
     high-symmetry point: -0.4286-0.1429-0.1677   x coordinate  12.6177
     high-symmetry point: -0.4286-0.1429 0.0280   x coordinate  12.8133
     high-symmetry point:  0.4286-0.1429 0.0839   x coordinate  13.6723
     high-symmetry point:  0.4286-0.1429 0.2795   x coordinate  13.8679
     high-symmetry point:  0.2857-0.1429 0.0419   x coordinate  14.1452
     high-symmetry point:  0.2857-0.1429 0.2376   x coordinate  14.3408
     high-symmetry point: -0.4286-0.2857-0.2096   x coordinate  15.1956
     high-symmetry point: -0.4286-0.2857-0.0140   x coordinate  15.3912
     high-symmetry point:  0.4286-0.2857 0.0419   x coordinate  16.2502
     high-symmetry point:  0.4286-0.2857 0.2376   x coordinate  16.4459

     Plottable bands (eV) written to file NbP_bands.dat.gnu
     Bands written to file NbP_bands.dat

 **************************************************************************

                    xk=(   0.00000,   0.00000,   0.00000  )

     point group C_1 (1)    
     there are  1 classes
     the character table:

       E    
A      1.00

     the symmetry operations in each class and the name of the first element:

     E        1
                                                                 

     Band symmetry, C_1 (1)     point group:

     e(  1 -  1) =    -53.13849  eV     1   --> A              
     e(  2 -  2) =    -53.12218  eV     1   --> A              
     e(  3 -  3) =    -53.12167  eV     1   --> A              
     e(  4 -  4) =    -53.10593  eV     1   --> A              
     e(  5 -  5) =    -52.96489  eV     1   --> A              
     e(  6 -  6) =    -52.94933  eV     1   --> A              
     e(  7 -  7) =    -52.94781  eV     1   --> A              
     e(  8 -  8) =    -52.93276  eV     1   --> A              
     e(  9 -  9) =    -29.39304  eV     1   --> A              
     e( 10 - 10) =    -29.38015  eV     1   --> A              
     e( 11 - 11) =    -29.34873  eV     1   --> A              
     e( 12 - 12) =    -29.33587  eV     1   --> A              
     e( 13 - 13) =    -29.33219  eV     1   --> A              
     e( 14 - 14) =    -29.29808  eV     1   --> A              
     e( 15 - 15) =    -29.27468  eV     1   --> A              
     e( 16 - 16) =    -29.24629  eV     1   --> A              
     e( 17 - 17) =    -29.22214  eV     1   --> A              
     e( 18 - 18) =    -29.18415  eV     1   --> A              
     e( 19 - 19) =    -29.14997  eV     1   --> A              
     e( 20 - 20) =    -29.13370  eV     1   --> A              
     e( 21 - 21) =    -29.12789  eV     1   --> A              
     e( 22 - 22) =    -29.12451  eV     1   --> A              
     e( 23 - 23) =    -29.11840  eV     1   --> A              
     e( 24 - 24) =    -29.11649  eV     1   --> A              
     e( 25 - 25) =    -29.09914  eV     1   --> A              
     e( 26 - 26) =    -29.09718  eV     1   --> A              
     e( 27 - 27) =    -29.09179  eV     1   --> A              
     e( 28 - 28) =    -29.09107  eV     1   --> A              
     e( 29 - 29) =    -28.96336  eV     1   --> A              
     e( 30 - 30) =    -28.94017  eV     1   --> A              
     e( 31 - 31) =    -28.92102  eV     1   --> A              
     e( 32 - 32) =    -28.89604  eV     1   --> A              
     e( 33 - 33) =    -10.00263  eV     1   --> A              
     e( 34 - 34) =     -8.54209  eV     1   --> A              
     e( 35 - 35) =     -8.45644  eV     1   --> A              
     e( 36 - 36) =     -8.42713  eV     1   --> A              
     e( 37 - 37) =     -8.21443  eV     1   --> A              
     e( 38 - 38) =     -7.43848  eV     1   --> A              
     e( 39 - 39) =     -7.42135  eV     1   --> A              
     e( 40 - 40) =     -7.39881  eV     1   --> A              
     e( 41 - 41) =     -4.04930  eV     1   --> A              
     e( 42 - 42) =     -3.70139  eV     1   --> A              
     e( 43 - 43) =     -3.23459  eV     1   --> A              
     e( 44 - 44) =     -2.96631  eV     1   --> A              
     e( 45 - 45) =     -2.87810  eV     1   --> A              
     e( 46 - 46) =     -2.75625  eV     1   --> A              
     e( 47 - 47) =     -2.34492  eV     1   --> A              
     e( 48 - 48) =     -2.01897  eV     1   --> A              
     e( 49 - 49) =     -1.71086  eV     1   --> A              
     e( 50 - 50) =     -1.56383  eV     1   --> A              
     e( 51 - 51) =     -1.27835  eV     1   --> A              
     e( 52 - 52) =     -1.10045  eV     1   --> A              
     e( 53 - 53) =     -1.02610  eV     1   --> A              
     e( 54 - 54) =     -0.91904  eV     1   --> A              
     e( 55 - 55) =     -0.38908  eV     1   --> A              
     e( 56 - 56) =     -0.35570  eV     1   --> A              
     e( 57 - 57) =     -0.33732  eV     1   --> A              
     e( 58 - 58) =     -0.25504  eV     1   --> A              
     e( 59 - 59) =     -0.23762  eV     1   --> A              
     e( 60 - 60) =     -0.03562  eV     1   --> A              
     e( 61 - 61) =      0.02984  eV     1   --> A              
     e( 62 - 62) =      0.22209  eV     1   --> A              
     e( 63 - 63) =      0.82983  eV     1   --> A              
     e( 64 - 64) =      1.07767  eV     1   --> A              
     e( 65 - 65) =      1.09643  eV     1   --> A              
     e( 66 - 66) =      1.16309  eV     1   --> A              
     e( 67 - 67) =      1.18006  eV     1   --> A              
     e( 68 - 68) =      1.51296  eV     1   --> A              
     e( 69 - 69) =      1.67273  eV     1   --> A              
     e( 70 - 70) =      1.67717  eV     1   --> A              
     e( 71 - 71) =      1.94230  eV     1   --> A              
     e( 72 - 72) =      2.02396  eV     1   --> A              
     e( 73 - 73) =      2.02562  eV     1   --> A              
     e( 74 - 74) =      2.10167  eV     1   --> A              
     e( 75 - 75) =      2.44959  eV     1   --> A              
     e( 76 - 76) =      2.76896  eV     1   --> A              
     e( 77 - 77) =      2.85920  eV     1   --> A              
     e( 78 - 78) =      2.92071  eV     1   --> A              
     e( 79 - 79) =      2.92413  eV     1   --> A              
     e( 80 - 80) =      2.94146  eV     1   --> A              
     e( 81 - 81) =      3.35070  eV     1   --> A              
     e( 82 - 82) =      3.36781  eV     1   --> A              
     e( 83 - 83) =      3.53414  eV     1   --> A              
     e( 84 - 84) =      3.76400  eV     1   --> A              
     e( 85 - 85) =      3.77760  eV     1   --> A              
     e( 86 - 86) =      4.23773  eV     1   --> A              

 **************************************************************************

 **************************************************************************

                    xk=(   0.00000,   0.00000,  -0.19566  )

     Band symmetry, C_1 (1)     point group:

     e(  1 -  1) =    -53.13847  eV     1   --> A              
     e(  2 -  2) =    -53.12218  eV     1   --> A              
     e(  3 -  3) =    -53.12167  eV     1   --> A              
     e(  4 -  4) =    -53.10593  eV     1   --> A              
     e(  5 -  5) =    -52.96486  eV     1   --> A              
     e(  6 -  6) =    -52.94933  eV     1   --> A              
     e(  7 -  7) =    -52.94781  eV     1   --> A              
     e(  8 -  8) =    -52.93276  eV     1   --> A              
     e(  9 -  9) =    -29.39304  eV     1   --> A              
     e( 10 - 10) =    -29.38015  eV     1   --> A              
     e( 11 - 11) =    -29.34873  eV     1   --> A              
     e( 12 - 12) =    -29.33587  eV     1   --> A              
     e( 13 - 13) =    -29.33206  eV     1   --> A              
     e( 14 - 14) =    -29.29808  eV     1   --> A              
     e( 15 - 15) =    -29.27468  eV     1   --> A              
     e( 16 - 16) =    -29.24629  eV     1   --> A              
     e( 17 - 17) =    -29.22214  eV     1   --> A              
     e( 18 - 18) =    -29.18415  eV     1   --> A              
     e( 19 - 19) =    -29.14986  eV     1   --> A              
     e( 20 - 20) =    -29.13370  eV     1   --> A              
     e( 21 - 21) =    -29.12789  eV     1   --> A              
     e( 22 - 22) =    -29.12451  eV     1   --> A              
     e( 23 - 23) =    -29.11827  eV     1   --> A              
     e( 24 - 24) =    -29.11638  eV     1   --> A              
     e( 25 - 25) =    -29.09914  eV     1   --> A              
     e( 26 - 26) =    -29.09718  eV     1   --> A              
     e( 27 - 27) =    -29.09179  eV     1   --> A              
     e( 28 - 28) =    -29.09107  eV     1   --> A              
     e( 29 - 29) =    -28.96326  eV     1   --> A              
     e( 30 - 30) =    -28.94017  eV     1   --> A              
     e( 31 - 31) =    -28.92093  eV     1   --> A              
     e( 32 - 32) =    -28.89604  eV     1   --> A              
     e( 33 - 33) =    -10.00262  eV     1   --> A              
     e( 34 - 34) =     -8.54208  eV     1   --> A              
     e( 35 - 35) =     -8.45644  eV     1   --> A              
     e( 36 - 36) =     -8.42713  eV     1   --> A              
     e( 37 - 37) =     -8.21443  eV     1   --> A              
     e( 38 - 38) =     -7.43848  eV     1   --> A              
     e( 39 - 39) =     -7.42135  eV     1   --> A              
     e( 40 - 40) =     -7.39881  eV     1   --> A              
     e( 41 - 41) =     -4.04930  eV     1   --> A              
     e( 42 - 42) =     -3.70139  eV     1   --> A              
     e( 43 - 43) =     -3.23459  eV     1   --> A              
     e( 44 - 44) =     -2.96631  eV     1   --> A              
     e( 45 - 45) =     -2.87809  eV     1   --> A              
     e( 46 - 46) =     -2.75625  eV     1   --> A              
     e( 47 - 47) =     -2.34492  eV     1   --> A              
     e( 48 - 48) =     -2.01897  eV     1   --> A              
     e( 49 - 49) =     -1.71086  eV     1   --> A              
     e( 50 - 50) =     -1.56383  eV     1   --> A              
     e( 51 - 51) =     -1.27835  eV     1   --> A              
     e( 52 - 52) =     -1.10044  eV     1   --> A              
     e( 53 - 53) =     -1.02610  eV     1   --> A              
     e( 54 - 54) =     -0.91904  eV     1   --> A              
     e( 55 - 55) =     -0.38906  eV     1   --> A              
     e( 56 - 56) =     -0.35568  eV     1   --> A              
     e( 57 - 57) =     -0.33732  eV     1   --> A              
     e( 58 - 58) =     -0.25504  eV     1   --> A              
     e( 59 - 59) =     -0.23762  eV     1   --> A              
     e( 60 - 60) =     -0.03561  eV     1   --> A              
     e( 61 - 61) =      0.02984  eV     1   --> A              
     e( 62 - 62) =      0.22212  eV     1   --> A              
     e( 63 - 63) =      0.82983  eV     1   --> A              
     e( 64 - 64) =      1.07767  eV     1   --> A              
     e( 65 - 65) =      1.09643  eV     1   --> A              
     e( 66 - 66) =      1.16309  eV     1   --> A              
     e( 67 - 67) =      1.18006  eV     1   --> A              
     e( 68 - 68) =      1.51299  eV     1   --> A              
     e( 69 - 69) =      1.67276  eV     1   --> A              
     e( 70 - 70) =      1.67719  eV     1   --> A              
     e( 71 - 71) =      1.94230  eV     1   --> A              
     e( 72 - 72) =      2.02396  eV     1   --> A              
     e( 73 - 73) =      2.02562  eV     1   --> A              
     e( 74 - 74) =      2.10167  eV     1   --> A              
     e( 75 - 75) =      2.44959  eV     1   --> A              
     e( 76 - 76) =      2.76896  eV     1   --> A              
     e( 77 - 77) =      2.85920  eV     1   --> A              
     e( 78 - 78) =      2.92073  eV     1   --> A              
     e( 79 - 79) =      2.92413  eV     1   --> A              
     e( 80 - 80) =      2.94146  eV     1   --> A              
     e( 81 - 81) =      3.35072  eV     1   --> A              
     e( 82 - 82) =      3.36781  eV     1   --> A              
     e( 83 - 83) =      3.53414  eV     1   --> A              
     e( 84 - 84) =      3.76401  eV     1   --> A              
     e( 85 - 85) =      3.77760  eV     1   --> A              
     e( 86 - 86) =      4.23771  eV     1   --> A              

 **************************************************************************

 **************************************************************************

                    xk=(   0.00000,   0.14286,   0.04193  )

     Band symmetry, C_1 (1)     point group:

     e(  1 -  1) =    -53.13769  eV     1   --> A              
     e(  2 -  2) =    -53.12298  eV     1   --> A              
     e(  3 -  3) =    -53.12089  eV     1   --> A              
     e(  4 -  4) =    -53.10670  eV     1   --> A              
     e(  5 -  5) =    -52.96404  eV     1   --> A              
     e(  6 -  6) =    -52.94865  eV     1   --> A              
     e(  7 -  7) =    -52.94850  eV     1   --> A              
     e(  8 -  8) =    -52.93357  eV     1   --> A              
     e(  9 -  9) =    -29.38139  eV     1   --> A              
     e( 10 - 10) =    -29.37794  eV     1   --> A              
     e( 11 - 11) =    -29.33806  eV     1   --> A              
     e( 12 - 12) =    -29.33786  eV     1   --> A              
     e( 13 - 13) =    -29.33057  eV     1   --> A              
     e( 14 - 14) =    -29.29953  eV     1   --> A              
     e( 15 - 15) =    -29.27328  eV     1   --> A              
     e( 16 - 16) =    -29.24759  eV     1   --> A              
     e( 17 - 17) =    -29.20960  eV     1   --> A              
     e( 18 - 18) =    -29.17226  eV     1   --> A              
     e( 19 - 19) =    -29.16213  eV     1   --> A              
     e( 20 - 20) =    -29.13581  eV     1   --> A              
     e( 21 - 21) =    -29.13186  eV     1   --> A              
     e( 22 - 22) =    -29.12648  eV     1   --> A              
     e( 23 - 23) =    -29.11707  eV     1   --> A              
     e( 24 - 24) =    -29.11528  eV     1   --> A              
     e( 25 - 25) =    -29.10054  eV     1   --> A              
     e( 26 - 26) =    -29.09899  eV     1   --> A              
     e( 27 - 27) =    -29.09300  eV     1   --> A              
     e( 28 - 28) =    -29.09242  eV     1   --> A              
     e( 29 - 29) =    -28.97649  eV     1   --> A              
     e( 30 - 30) =    -28.95248  eV     1   --> A              
     e( 31 - 31) =    -28.91982  eV     1   --> A              
     e( 32 - 32) =    -28.89728  eV     1   --> A              
     e( 33 - 33) =     -9.93973  eV     1   --> A              
     e( 34 - 34) =     -8.55087  eV     1   --> A              
     e( 35 - 35) =     -8.49729  eV     1   --> A              
     e( 36 - 36) =     -8.41221  eV     1   --> A              
     e( 37 - 37) =     -8.22035  eV     1   --> A              
     e( 38 - 38) =     -7.48514  eV     1   --> A              
     e( 39 - 39) =     -7.43369  eV     1   --> A              
     e( 40 - 40) =     -7.41851  eV     1   --> A              
     e( 41 - 41) =     -3.89159  eV     1   --> A              
     e( 42 - 42) =     -3.64443  eV     1   --> A              
     e( 43 - 43) =     -3.17542  eV     1   --> A              
     e( 44 - 44) =     -2.94617  eV     1   --> A              
     e( 45 - 45) =     -2.86662  eV     1   --> A              
     e( 46 - 46) =     -2.69333  eV     1   --> A              
     e( 47 - 47) =     -2.49709  eV     1   --> A              
     e( 48 - 48) =     -1.95950  eV     1   --> A              
     e( 49 - 49) =     -1.56632  eV     1   --> A              
     e( 50 - 50) =     -1.53569  eV     1   --> A              
     e( 51 - 51) =     -1.33812  eV     1   --> A              
     e( 52 - 52) =     -1.24839  eV     1   --> A              
     e( 53 - 53) =     -1.10723  eV     1   --> A              
     e( 54 - 54) =     -0.85385  eV     1   --> A              
     e( 55 - 55) =     -0.65378  eV     1   --> A              
     e( 56 - 56) =     -0.62721  eV     1   --> A              
     e( 57 - 57) =     -0.35773  eV     1   --> A              
     e( 58 - 58) =     -0.22182  eV     1   --> A              
     e( 59 - 59) =      0.05815  eV     1   --> A              
     e( 60 - 60) =      0.07965  eV     1   --> A              
     e( 61 - 61) =      0.19195  eV     1   --> A              
     e( 62 - 62) =      0.21136  eV     1   --> A              
     e( 63 - 63) =      0.89850  eV     1   --> A              
     e( 64 - 64) =      0.91823  eV     1   --> A              
     e( 65 - 65) =      1.09215  eV     1   --> A              
     e( 66 - 66) =      1.15977  eV     1   --> A              
     e( 67 - 67) =      1.21555  eV     1   --> A              
     e( 68 - 68) =      1.31730  eV     1   --> A              
     e( 69 - 69) =      1.57622  eV     1   --> A              
     e( 70 - 70) =      1.58252  eV     1   --> A              
     e( 71 - 71) =      1.76884  eV     1   --> A              
     e( 72 - 72) =      2.04217  eV     1   --> A              
     e( 73 - 73) =      2.07671  eV     1   --> A              
     e( 74 - 74) =      2.45656  eV     1   --> A              
     e( 75 - 75) =      2.51096  eV     1   --> A              
     e( 76 - 76) =      2.66213  eV     1   --> A              
     e( 77 - 77) =      2.70326  eV     1   --> A              
     e( 78 - 78) =      2.79459  eV     1   --> A              
     e( 79 - 79) =      2.89810  eV     1   --> A              
     e( 80 - 80) =      3.09419  eV     1   --> A              
     e( 81 - 81) =      3.24888  eV     1   --> A              
     e( 82 - 82) =      3.46309  eV     1   --> A              
     e( 83 - 83) =      3.48303  eV     1   --> A              
     e( 84 - 84) =      3.67516  eV     1   --> A              
     e( 85 - 85) =      3.73371  eV     1   --> A              
     e( 86 - 86) =      4.17340  eV     1   --> A              

 **************************************************************************

 **************************************************************************

                    xk=(   0.00000,   0.14286,  -0.15373  )

     Band symmetry, C_1 (1)     point group:

     e(  1 -  1) =    -53.13768  eV     1   --> A              
     e(  2 -  2) =    -53.12298  eV     1   --> A              
     e(  3 -  3) =    -53.12089  eV     1   --> A              
     e(  4 -  4) =    -53.10670  eV     1   --> A              
     e(  5 -  5) =    -52.96404  eV     1   --> A              
     e(  6 -  6) =    -52.94865  eV     1   --> A              
     e(  7 -  7) =    -52.94850  eV     1   --> A              
     e(  8 -  8) =    -52.93357  eV     1   --> A              
     e(  9 -  9) =    -29.38139  eV     1   --> A              
     e( 10 - 10) =    -29.37794  eV     1   --> A              
     e( 11 - 11) =    -29.33806  eV     1   --> A              
     e( 12 - 12) =    -29.33786  eV     1   --> A              
     e( 13 - 13) =    -29.33057  eV     1   --> A              
     e( 14 - 14) =    -29.29957  eV     1   --> A              
     e( 15 - 15) =    -29.27328  eV     1   --> A              
     e( 16 - 16) =    -29.24759  eV     1   --> A              
     e( 17 - 17) =    -29.20961  eV     1   --> A              
     e( 18 - 18) =    -29.17226  eV     1   --> A              
     e( 19 - 19) =    -29.16210  eV     1   --> A              
     e( 20 - 20) =    -29.13581  eV     1   --> A              
     e( 21 - 21) =    -29.13186  eV     1   --> A              
     e( 22 - 22) =    -29.12648  eV     1   --> A              
     e( 23 - 23) =    -29.11702  eV     1   --> A              
     e( 24 - 24) =    -29.11527  eV     1   --> A              
     e( 25 - 25) =    -29.10054  eV     1   --> A              
     e( 26 - 26) =    -29.09899  eV     1   --> A              
     e( 27 - 27) =    -29.09301  eV     1   --> A              
     e( 28 - 28) =    -29.09243  eV     1   --> A              
     e( 29 - 29) =    -28.97647  eV     1   --> A              
     e( 30 - 30) =    -28.95248  eV     1   --> A              
     e( 31 - 31) =    -28.91980  eV     1   --> A              
     e( 32 - 32) =    -28.89728  eV     1   --> A              
     e( 33 - 33) =     -9.93972  eV     1   --> A              
     e( 34 - 34) =     -8.55087  eV     1   --> A              
     e( 35 - 35) =     -8.49729  eV     1   --> A              
     e( 36 - 36) =     -8.41221  eV     1   --> A              
     e( 37 - 37) =     -8.22035  eV     1   --> A              
     e( 38 - 38) =     -7.48514  eV     1   --> A              
     e( 39 - 39) =     -7.43369  eV     1   --> A              
     e( 40 - 40) =     -7.41851  eV     1   --> A              
     e( 41 - 41) =     -3.89159  eV     1   --> A              
     e( 42 - 42) =     -3.64443  eV     1   --> A              
     e( 43 - 43) =     -3.17542  eV     1   --> A              
     e( 44 - 44) =     -2.94617  eV     1   --> A              
     e( 45 - 45) =     -2.86662  eV     1   --> A              
     e( 46 - 46) =     -2.69333  eV     1   --> A              
     e( 47 - 47) =     -2.49709  eV     1   --> A              
     e( 48 - 48) =     -1.95950  eV     1   --> A              
     e( 49 - 49) =     -1.56632  eV     1   --> A              
     e( 50 - 50) =     -1.53568  eV     1   --> A              
     e( 51 - 51) =     -1.33812  eV     1   --> A              
     e( 52 - 52) =     -1.24839  eV     1   --> A              
     e( 53 - 53) =     -1.10723  eV     1   --> A              
     e( 54 - 54) =     -0.85385  eV     1   --> A              
     e( 55 - 55) =     -0.65377  eV     1   --> A              
     e( 56 - 56) =     -0.62721  eV     1   --> A              
     e( 57 - 57) =     -0.35773  eV     1   --> A              
     e( 58 - 58) =     -0.22182  eV     1   --> A              
     e( 59 - 59) =      0.05815  eV     1   --> A              
     e( 60 - 60) =      0.07965  eV     1   --> A              
     e( 61 - 61) =      0.19196  eV     1   --> A              
     e( 62 - 62) =      0.21137  eV     1   --> A              
     e( 63 - 63) =      0.89850  eV     1   --> A              
     e( 64 - 64) =      0.91824  eV     1   --> A              
     e( 65 - 65) =      1.09215  eV     1   --> A              
     e( 66 - 66) =      1.15977  eV     1   --> A              
     e( 67 - 67) =      1.21555  eV     1   --> A              
     e( 68 - 68) =      1.31731  eV     1   --> A              
     e( 69 - 69) =      1.57622  eV     1   --> A              
     e( 70 - 70) =      1.58253  eV     1   --> A              
     e( 71 - 71) =      1.76885  eV     1   --> A              
     e( 72 - 72) =      2.04217  eV     1   --> A              
     e( 73 - 73) =      2.07671  eV     1   --> A              
     e( 74 - 74) =      2.45656  eV     1   --> A              
     e( 75 - 75) =      2.51096  eV     1   --> A              
     e( 76 - 76) =      2.66213  eV     1   --> A              
     e( 77 - 77) =      2.70326  eV     1   --> A              
     e( 78 - 78) =      2.79459  eV     1   --> A              
     e( 79 - 79) =      2.89810  eV     1   --> A              
     e( 80 - 80) =      3.09419  eV     1   --> A              
     e( 81 - 81) =      3.24889  eV     1   --> A              
     e( 82 - 82) =      3.46309  eV     1   --> A              
     e( 83 - 83) =      3.48303  eV     1   --> A              
     e( 84 - 84) =      3.67516  eV     1   --> A              
     e( 85 - 85) =      3.73370  eV     1   --> A              
     e( 86 - 86) =      4.17331  eV     1   --> A              

 **************************************************************************

 **************************************************************************

                    xk=(   0.00000,   0.28571,   0.08385  )

     Band symmetry, C_1 (1)     point group:

     e(  1 -  1) =    -53.13543  eV     1   --> A              
     e(  2 -  2) =    -53.12525  eV     1   --> A              
     e(  3 -  3) =    -53.11871  eV     1   --> A              
     e(  4 -  4) =    -53.10889  eV     1   --> A              
     e(  5 -  5) =    -52.96168  eV     1   --> A              
     e(  6 -  6) =    -52.95102  eV     1   --> A              
     e(  7 -  7) =    -52.94621  eV     1   --> A              
     e(  8 -  8) =    -52.93587  eV     1   --> A              
     e(  9 -  9) =    -29.37186  eV     1   --> A              
     e( 10 - 10) =    -29.34914  eV     1   --> A              
     e( 11 - 11) =    -29.34425  eV     1   --> A              
     e( 12 - 12) =    -29.32617  eV     1   --> A              
     e( 13 - 13) =    -29.30749  eV     1   --> A              
     e( 14 - 14) =    -29.30323  eV     1   --> A              
     e( 15 - 15) =    -29.26945  eV     1   --> A              
     e( 16 - 16) =    -29.25118  eV     1   --> A              
     e( 17 - 17) =    -29.19605  eV     1   --> A              
     e( 18 - 18) =    -29.17441  eV     1   --> A              
     e( 19 - 19) =    -29.16723  eV     1   --> A              
     e( 20 - 20) =    -29.13894  eV     1   --> A              
     e( 21 - 21) =    -29.12690  eV     1   --> A              
     e( 22 - 22) =    -29.12248  eV     1   --> A              
     e( 23 - 23) =    -29.11329  eV     1   --> A              
     e( 24 - 24) =    -29.11185  eV     1   --> A              
     e( 25 - 25) =    -29.10453  eV     1   --> A              
     e( 26 - 26) =    -29.10413  eV     1   --> A              
     e( 27 - 27) =    -29.09641  eV     1   --> A              
     e( 28 - 28) =    -29.09623  eV     1   --> A              
     e( 29 - 29) =    -29.01313  eV     1   --> A              
     e( 30 - 30) =    -28.98692  eV     1   --> A              
     e( 31 - 31) =    -28.91637  eV     1   --> A              
     e( 32 - 32) =    -28.90073  eV     1   --> A              
     e( 33 - 33) =     -9.75795  eV     1   --> A              
     e( 34 - 34) =     -8.80412  eV     1   --> A              
     e( 35 - 35) =     -8.37273  eV     1   --> A              
     e( 36 - 36) =     -8.36886  eV     1   --> A              
     e( 37 - 37) =     -8.23961  eV     1   --> A              
     e( 38 - 38) =     -7.69118  eV     1   --> A              
     e( 39 - 39) =     -7.42254  eV     1   --> A              
     e( 40 - 40) =     -7.41243  eV     1   --> A              
     e( 41 - 41) =     -3.52115  eV     1   --> A              
     e( 42 - 42) =     -3.48857  eV     1   --> A              
     e( 43 - 43) =     -3.01958  eV     1   --> A              
     e( 44 - 44) =     -2.88627  eV     1   --> A              
     e( 45 - 45) =     -2.85850  eV     1   --> A              
     e( 46 - 46) =     -2.76288  eV     1   --> A              
     e( 47 - 47) =     -2.48913  eV     1   --> A              
     e( 48 - 48) =     -1.83478  eV     1   --> A              
     e( 49 - 49) =     -1.61742  eV     1   --> A              
     e( 50 - 50) =     -1.46287  eV     1   --> A              
     e( 51 - 51) =     -1.44478  eV     1   --> A              
     e( 52 - 52) =     -1.34395  eV     1   --> A              
     e( 53 - 53) =     -1.30778  eV     1   --> A              
     e( 54 - 54) =     -0.88955  eV     1   --> A              
     e( 55 - 55) =     -0.82827  eV     1   --> A              
     e( 56 - 56) =     -0.66473  eV     1   --> A              
     e( 57 - 57) =     -0.47571  eV     1   --> A              
     e( 58 - 58) =     -0.46695  eV     1   --> A              
     e( 59 - 59) =      0.14550  eV     1   --> A              
     e( 60 - 60) =      0.21601  eV     1   --> A              
     e( 61 - 61) =      0.40752  eV     1   --> A              
     e( 62 - 62) =      0.49823  eV     1   --> A              
     e( 63 - 63) =      0.53443  eV     1   --> A              
     e( 64 - 64) =      0.93301  eV     1   --> A              
     e( 65 - 65) =      1.08263  eV     1   --> A              
     e( 66 - 66) =      1.12072  eV     1   --> A              
     e( 67 - 67) =      1.20952  eV     1   --> A              
     e( 68 - 68) =      1.37280  eV     1   --> A              
     e( 69 - 69) =      1.51226  eV     1   --> A              
     e( 70 - 70) =      1.52108  eV     1   --> A              
     e( 71 - 71) =      1.93787  eV     1   --> A              
     e( 72 - 72) =      2.00194  eV     1   --> A              
     e( 73 - 73) =      2.03476  eV     1   --> A              
     e( 74 - 74) =      2.24966  eV     1   --> A              
     e( 75 - 75) =      2.26502  eV     1   --> A              
     e( 76 - 76) =      2.56127  eV     1   --> A              
     e( 77 - 77) =      2.58717  eV     1   --> A              
     e( 78 - 78) =      2.60144  eV     1   --> A              
     e( 79 - 79) =      2.70027  eV     1   --> A              
     e( 80 - 80) =      3.29054  eV     1   --> A              
     e( 81 - 81) =      3.39741  eV     1   --> A              
     e( 82 - 82) =      3.49676  eV     1   --> A              
     e( 83 - 83) =      3.57946  eV     1   --> A              
     e( 84 - 84) =      3.65215  eV     1   --> A              
     e( 85 - 85) =      3.74770  eV     1   --> A              
     e( 86 - 86) =      3.85247  eV     1   --> A              

 **************************************************************************

 **************************************************************************

                    xk=(   0.00000,   0.28571,  -0.11180  )

     Band symmetry, C_1 (1)     point group:

     e(  1 -  1) =    -53.13543  eV     1   --> A              
     e(  2 -  2) =    -53.12525  eV     1   --> A              
     e(  3 -  3) =    -53.11871  eV     1   --> A              
     e(  4 -  4) =    -53.10889  eV     1   --> A              
     e(  5 -  5) =    -52.96168  eV     1   --> A              
     e(  6 -  6) =    -52.95102  eV     1   --> A              
     e(  7 -  7) =    -52.94621  eV     1   --> A              
     e(  8 -  8) =    -52.93587  eV     1   --> A              
     e(  9 -  9) =    -29.37186  eV     1   --> A              
     e( 10 - 10) =    -29.34914  eV     1   --> A              
     e( 11 - 11) =    -29.34425  eV     1   --> A              
     e( 12 - 12) =    -29.32618  eV     1   --> A              
     e( 13 - 13) =    -29.30749  eV     1   --> A              
     e( 14 - 14) =    -29.30327  eV     1   --> A              
     e( 15 - 15) =    -29.26945  eV     1   --> A              
     e( 16 - 16) =    -29.25118  eV     1   --> A              
     e( 17 - 17) =    -29.19607  eV     1   --> A              
     e( 18 - 18) =    -29.17441  eV     1   --> A              
     e( 19 - 19) =    -29.16723  eV     1   --> A              
     e( 20 - 20) =    -29.13894  eV     1   --> A              
     e( 21 - 21) =    -29.12690  eV     1   --> A              
     e( 22 - 22) =    -29.12248  eV     1   --> A              
     e( 23 - 23) =    -29.11331  eV     1   --> A              
     e( 24 - 24) =    -29.11186  eV     1   --> A              
     e( 25 - 25) =    -29.10453  eV     1   --> A              
     e( 26 - 26) =    -29.10413  eV     1   --> A              
     e( 27 - 27) =    -29.09644  eV     1   --> A              
     e( 28 - 28) =    -29.09620  eV     1   --> A              
     e( 29 - 29) =    -29.01315  eV     1   --> A              
     e( 30 - 30) =    -28.98692  eV     1   --> A              
     e( 31 - 31) =    -28.91638  eV     1   --> A              
     e( 32 - 32) =    -28.90076  eV     1   --> A              
     e( 33 - 33) =     -9.75795  eV     1   --> A              
     e( 34 - 34) =     -8.80412  eV     1   --> A              
     e( 35 - 35) =     -8.37273  eV     1   --> A              
     e( 36 - 36) =     -8.36886  eV     1   --> A              
     e( 37 - 37) =     -8.23961  eV     1   --> A              
     e( 38 - 38) =     -7.69118  eV     1   --> A              
     e( 39 - 39) =     -7.42254  eV     1   --> A              
     e( 40 - 40) =     -7.41243  eV     1   --> A              
     e( 41 - 41) =     -3.52116  eV     1   --> A              
     e( 42 - 42) =     -3.48857  eV     1   --> A              
     e( 43 - 43) =     -3.01958  eV     1   --> A              
     e( 44 - 44) =     -2.88627  eV     1   --> A              
     e( 45 - 45) =     -2.85850  eV     1   --> A              
     e( 46 - 46) =     -2.76288  eV     1   --> A              
     e( 47 - 47) =     -2.48913  eV     1   --> A              
     e( 48 - 48) =     -1.83478  eV     1   --> A              
     e( 49 - 49) =     -1.61742  eV     1   --> A              
     e( 50 - 50) =     -1.46287  eV     1   --> A              
     e( 51 - 51) =     -1.44478  eV     1   --> A              
     e( 52 - 52) =     -1.34395  eV     1   --> A              
     e( 53 - 53) =     -1.30779  eV     1   --> A              
     e( 54 - 54) =     -0.88955  eV     1   --> A              
     e( 55 - 55) =     -0.82827  eV     1   --> A              
     e( 56 - 56) =     -0.66474  eV     1   --> A              
     e( 57 - 57) =     -0.47571  eV     1   --> A              
     e( 58 - 58) =     -0.46695  eV     1   --> A              
     e( 59 - 59) =      0.14550  eV     1   --> A              
     e( 60 - 60) =      0.21601  eV     1   --> A              
     e( 61 - 61) =      0.40752  eV     1   --> A              
     e( 62 - 62) =      0.49823  eV     1   --> A              
     e( 63 - 63) =      0.53443  eV     1   --> A              
     e( 64 - 64) =      0.93301  eV     1   --> A              
     e( 65 - 65) =      1.08263  eV     1   --> A              
     e( 66 - 66) =      1.12072  eV     1   --> A              
     e( 67 - 67) =      1.20952  eV     1   --> A              
     e( 68 - 68) =      1.37280  eV     1   --> A              
     e( 69 - 69) =      1.51226  eV     1   --> A              
     e( 70 - 70) =      1.52107  eV     1   --> A              
     e( 71 - 71) =      1.93787  eV     1   --> A              
     e( 72 - 72) =      2.00194  eV     1   --> A              
     e( 73 - 73) =      2.03476  eV     1   --> A              
     e( 74 - 74) =      2.24966  eV     1   --> A              
     e( 75 - 75) =      2.26502  eV     1   --> A              
     e( 76 - 76) =      2.56127  eV     1   --> A              
     e( 77 - 77) =      2.58718  eV     1   --> A              
     e( 78 - 78) =      2.60144  eV     1   --> A              
     e( 79 - 79) =      2.70025  eV     1   --> A              
     e( 80 - 80) =      3.29054  eV     1   --> A              
     e( 81 - 81) =      3.39741  eV     1   --> A              
     e( 82 - 82) =      3.49678  eV     1   --> A              
     e( 83 - 83) =      3.57946  eV     1   --> A              
     e( 84 - 84) =      3.65214  eV     1   --> A              
     e( 85 - 85) =      3.74770  eV     1   --> A              
     e( 86 - 86) =      3.85246  eV     1   --> A              

 **************************************************************************

 **************************************************************************

                    xk=(   0.00000,   0.42857,   0.12578  )

     Band symmetry, C_1 (1)     point group:

     e(  1 -  1) =    -53.13216  eV     1   --> A              
     e(  2 -  2) =    -53.12853  eV     1   --> A              
     e(  3 -  3) =    -53.11556  eV     1   --> A              
     e(  4 -  4) =    -53.11205  eV     1   --> A              
     e(  5 -  5) =    -52.95826  eV     1   --> A              
     e(  6 -  6) =    -52.95446  eV     1   --> A              
     e(  7 -  7) =    -52.94289  eV     1   --> A              
     e(  8 -  8) =    -52.93920  eV     1   --> A              
     e(  9 -  9) =    -29.36302  eV     1   --> A              
     e( 10 - 10) =    -29.35316  eV     1   --> A              
     e( 11 - 11) =    -29.32003  eV     1   --> A              
     e( 12 - 12) =    -29.31643  eV     1   --> A              
     e( 13 - 13) =    -29.29454  eV     1   --> A              
     e( 14 - 14) =    -29.26610  eV     1   --> A              
     e( 15 - 15) =    -29.26413  eV     1   --> A              
     e( 16 - 16) =    -29.25374  eV     1   --> A              
     e( 17 - 17) =    -29.24445  eV     1   --> A              
     e( 18 - 18) =    -29.21213  eV     1   --> A              
     e( 19 - 19) =    -29.12337  eV     1   --> A              
     e( 20 - 20) =    -29.11966  eV     1   --> A              
     e( 21 - 21) =    -29.11674  eV     1   --> A              
     e( 22 - 22) =    -29.11152  eV     1   --> A              
     e( 23 - 23) =    -29.11036  eV     1   --> A              
     e( 24 - 24) =    -29.10796  eV     1   --> A              
     e( 25 - 25) =    -29.10689  eV     1   --> A              
     e( 26 - 26) =    -29.10159  eV     1   --> A              
     e( 27 - 27) =    -29.10140  eV     1   --> A              
     e( 28 - 28) =    -29.09052  eV     1   --> A              
     e( 29 - 29) =    -29.06550  eV     1   --> A              
     e( 30 - 30) =    -29.03625  eV     1   --> A              
     e( 31 - 31) =    -28.91135  eV     1   --> A              
     e( 32 - 32) =    -28.90579  eV     1   --> A              
     e( 33 - 33) =     -9.47872  eV     1   --> A              
     e( 34 - 34) =     -9.14058  eV     1   --> A              
     e( 35 - 35) =     -8.32185  eV     1   --> A              
     e( 36 - 36) =     -8.27424  eV     1   --> A              
     e( 37 - 37) =     -8.17364  eV     1   --> A              
     e( 38 - 38) =     -7.93693  eV     1   --> A              
     e( 39 - 39) =     -7.41227  eV     1   --> A              
     e( 40 - 40) =     -7.40878  eV     1   --> A              
     e( 41 - 41) =     -3.27072  eV     1   --> A              
     e( 42 - 42) =     -3.15030  eV     1   --> A              
     e( 43 - 43) =     -3.02509  eV     1   --> A              
     e( 44 - 44) =     -2.92738  eV     1   --> A              
     e( 45 - 45) =     -2.85235  eV     1   --> A              
     e( 46 - 46) =     -2.81678  eV     1   --> A              
     e( 47 - 47) =     -2.12677  eV     1   --> A              
     e( 48 - 48) =     -1.87357  eV     1   --> A              
     e( 49 - 49) =     -1.86944  eV     1   --> A              
     e( 50 - 50) =     -1.69222  eV     1   --> A              
     e( 51 - 51) =     -1.33728  eV     1   --> A              
     e( 52 - 52) =     -1.28724  eV     1   --> A              
     e( 53 - 53) =     -1.18621  eV     1   --> A              
     e( 54 - 54) =     -1.09377  eV     1   --> A              
     e( 55 - 55) =     -1.06371  eV     1   --> A              
     e( 56 - 56) =     -0.90119  eV     1   --> A              
     e( 57 - 57) =     -0.37682  eV     1   --> A              
     e( 58 - 58) =     -0.31226  eV     1   --> A              
     e( 59 - 59) =     -0.06078  eV     1   --> A              
     e( 60 - 60) =      0.04864  eV     1   --> A              
     e( 61 - 61) =      0.40228  eV     1   --> A              
     e( 62 - 62) =      0.61815  eV     1   --> A              
     e( 63 - 63) =      0.74500  eV     1   --> A              
     e( 64 - 64) =      0.85705  eV     1   --> A              
     e( 65 - 65) =      1.00935  eV     1   --> A              
     e( 66 - 66) =      1.09691  eV     1   --> A              
     e( 67 - 67) =      1.35600  eV     1   --> A              
     e( 68 - 68) =      1.55085  eV     1   --> A              
     e( 69 - 69) =      1.57592  eV     1   --> A              
     e( 70 - 70) =      1.69050  eV     1   --> A              
     e( 71 - 71) =      1.83395  eV     1   --> A              
     e( 72 - 72) =      2.00258  eV     1   --> A              
     e( 73 - 73) =      2.04774  eV     1   --> A              
     e( 74 - 74) =      2.06042  eV     1   --> A              
     e( 75 - 75) =      2.16252  eV     1   --> A              
     e( 76 - 76) =      2.24348  eV     1   --> A              
     e( 77 - 77) =      2.27541  eV     1   --> A              
     e( 78 - 78) =      2.44874  eV     1   --> A              
     e( 79 - 79) =      2.76244  eV     1   --> A              
     e( 80 - 80) =      3.05334  eV     1   --> A              
     e( 81 - 81) =      3.41309  eV     1   --> A              
     e( 82 - 82) =      3.49648  eV     1   --> A              
     e( 83 - 83) =      3.53907  eV     1   --> A              
     e( 84 - 84) =      3.58085  eV     1   --> A              
     e( 85 - 85) =      3.74490  eV     1   --> A              
     e( 86 - 86) =      3.95790  eV     1   --> A              

 **************************************************************************

 **************************************************************************

                    xk=(   0.00000,   0.42857,  -0.06988  )

     Band symmetry, C_1 (1)     point group:

     e(  1 -  1) =    -53.13216  eV     1   --> A              
     e(  2 -  2) =    -53.12852  eV     1   --> A              
     e(  3 -  3) =    -53.11556  eV     1   --> A              
     e(  4 -  4) =    -53.11205  eV     1   --> A              
     e(  5 -  5) =    -52.95826  eV     1   --> A              
     e(  6 -  6) =    -52.95445  eV     1   --> A              
     e(  7 -  7) =    -52.94289  eV     1   --> A              
     e(  8 -  8) =    -52.93920  eV     1   --> A              
     e(  9 -  9) =    -29.36302  eV     1   --> A              
     e( 10 - 10) =    -29.35316  eV     1   --> A              
     e( 11 - 11) =    -29.32004  eV     1   --> A              
     e( 12 - 12) =    -29.31644  eV     1   --> A              
     e( 13 - 13) =    -29.29452  eV     1   --> A              
     e( 14 - 14) =    -29.26610  eV     1   --> A              
     e( 15 - 15) =    -29.26413  eV     1   --> A              
     e( 16 - 16) =    -29.25374  eV     1   --> A              
     e( 17 - 17) =    -29.24448  eV     1   --> A              
     e( 18 - 18) =    -29.21213  eV     1   --> A              
     e( 19 - 19) =    -29.12336  eV     1   --> A              
     e( 20 - 20) =    -29.11966  eV     1   --> A              
     e( 21 - 21) =    -29.11674  eV     1   --> A              
     e( 22 - 22) =    -29.11152  eV     1   --> A              
     e( 23 - 23) =    -29.11036  eV     1   --> A              
     e( 24 - 24) =    -29.10794  eV     1   --> A              
     e( 25 - 25) =    -29.10688  eV     1   --> A              
     e( 26 - 26) =    -29.10152  eV     1   --> A              
     e( 27 - 27) =    -29.10137  eV     1   --> A              
     e( 28 - 28) =    -29.09052  eV     1   --> A              
     e( 29 - 29) =    -29.06554  eV     1   --> A              
     e( 30 - 30) =    -29.03625  eV     1   --> A              
     e( 31 - 31) =    -28.91133  eV     1   --> A              
     e( 32 - 32) =    -28.90574  eV     1   --> A              
     e( 33 - 33) =     -9.47872  eV     1   --> A              
     e( 34 - 34) =     -9.14057  eV     1   --> A              
     e( 35 - 35) =     -8.32185  eV     1   --> A              
     e( 36 - 36) =     -8.27424  eV     1   --> A              
     e( 37 - 37) =     -8.17364  eV     1   --> A              
     e( 38 - 38) =     -7.93693  eV     1   --> A              
     e( 39 - 39) =     -7.41227  eV     1   --> A              
     e( 40 - 40) =     -7.40878  eV     1   --> A              
     e( 41 - 41) =     -3.27072  eV     1   --> A              
     e( 42 - 42) =     -3.15030  eV     1   --> A              
     e( 43 - 43) =     -3.02509  eV     1   --> A              
     e( 44 - 44) =     -2.92739  eV     1   --> A              
     e( 45 - 45) =     -2.85235  eV     1   --> A              
     e( 46 - 46) =     -2.81678  eV     1   --> A              
     e( 47 - 47) =     -2.12677  eV     1   --> A              
     e( 48 - 48) =     -1.87357  eV     1   --> A              
     e( 49 - 49) =     -1.86944  eV     1   --> A              
     e( 50 - 50) =     -1.69222  eV     1   --> A              
     e( 51 - 51) =     -1.33728  eV     1   --> A              
     e( 52 - 52) =     -1.28724  eV     1   --> A              
     e( 53 - 53) =     -1.18621  eV     1   --> A              
     e( 54 - 54) =     -1.09378  eV     1   --> A              
     e( 55 - 55) =     -1.06371  eV     1   --> A              
     e( 56 - 56) =     -0.90119  eV     1   --> A              
     e( 57 - 57) =     -0.37682  eV     1   --> A              
     e( 58 - 58) =     -0.31226  eV     1   --> A              
     e( 59 - 59) =     -0.06078  eV     1   --> A              
     e( 60 - 60) =      0.04865  eV     1   --> A              
     e( 61 - 61) =      0.40229  eV     1   --> A              
     e( 62 - 62) =      0.61815  eV     1   --> A              
     e( 63 - 63) =      0.74500  eV     1   --> A              
     e( 64 - 64) =      0.85705  eV     1   --> A              
     e( 65 - 65) =      1.00935  eV     1   --> A              
     e( 66 - 66) =      1.09691  eV     1   --> A              
     e( 67 - 67) =      1.35600  eV     1   --> A              
     e( 68 - 68) =      1.55084  eV     1   --> A              
     e( 69 - 69) =      1.57591  eV     1   --> A              
     e( 70 - 70) =      1.69050  eV     1   --> A              
     e( 71 - 71) =      1.83395  eV     1   --> A              
     e( 72 - 72) =      2.00258  eV     1   --> A              
     e( 73 - 73) =      2.04774  eV     1   --> A              
     e( 74 - 74) =      2.06043  eV     1   --> A              
     e( 75 - 75) =      2.16251  eV     1   --> A              
     e( 76 - 76) =      2.24348  eV     1   --> A              
     e( 77 - 77) =      2.27541  eV     1   --> A              
     e( 78 - 78) =      2.44873  eV     1   --> A              
     e( 79 - 79) =      2.76243  eV     1   --> A              
     e( 80 - 80) =      3.05334  eV     1   --> A              
     e( 81 - 81) =      3.41308  eV     1   --> A              
     e( 82 - 82) =      3.49651  eV     1   --> A              
     e( 83 - 83) =      3.53907  eV     1   --> A              
     e( 84 - 84) =      3.58086  eV     1   --> A              
     e( 85 - 85) =      3.74490  eV     1   --> A              
     e( 86 - 86) =      3.95790  eV     1   --> A              

 **************************************************************************

 **************************************************************************

                    xk=(   0.14286,   0.14286,   0.08385  )

     Band symmetry, C_1 (1)     point group:

     e(  1 -  1) =    -53.13685  eV     1   --> A              
     e(  2 -  2) =    -53.12218  eV     1   --> A              
     e(  3 -  3) =    -53.12172  eV     1   --> A              
     e(  4 -  4) =    -53.10751  eV     1   --> A              
     e(  5 -  5) =    -52.96327  eV     1   --> A              
     e(  6 -  6) =    -52.94927  eV     1   --> A              
     e(  7 -  7) =    -52.94790  eV     1   --> A              
     e(  8 -  8) =    -52.93432  eV     1   --> A              
     e(  9 -  9) =    -29.37924  eV     1   --> A              
     e( 10 - 10) =    -29.36726  eV     1   --> A              
     e( 11 - 11) =    -29.34014  eV     1   --> A              
     e( 12 - 12) =    -29.32795  eV     1   --> A              
     e( 13 - 13) =    -29.32781  eV     1   --> A              
     e( 14 - 14) =    -29.29712  eV     1   --> A              
     e( 15 - 15) =    -29.27263  eV     1   --> A              
     e( 16 - 16) =    -29.24754  eV     1   --> A              
     e( 17 - 17) =    -29.20776  eV     1   --> A              
     e( 18 - 18) =    -29.17412  eV     1   --> A              
     e( 19 - 19) =    -29.16081  eV     1   --> A              
     e( 20 - 20) =    -29.13707  eV     1   --> A              
     e( 21 - 21) =    -29.13633  eV     1   --> A              
     e( 22 - 22) =    -29.13348  eV     1   --> A              
     e( 23 - 23) =    -29.11550  eV     1   --> A              
     e( 24 - 24) =    -29.11233  eV     1   --> A              
     e( 25 - 25) =    -29.10857  eV     1   --> A              
     e( 26 - 26) =    -29.10364  eV     1   --> A              
     e( 27 - 27) =    -29.08651  eV     1   --> A              
     e( 28 - 28) =    -29.08502  eV     1   --> A              
     e( 29 - 29) =    -28.97529  eV     1   --> A              
     e( 30 - 30) =    -28.95366  eV     1   --> A              
     e( 31 - 31) =    -28.93131  eV     1   --> A              
     e( 32 - 32) =    -28.90810  eV     1   --> A              
     e( 33 - 33) =     -9.88283  eV     1   --> A              
     e( 34 - 34) =     -8.53572  eV     1   --> A              
     e( 35 - 35) =     -8.52469  eV     1   --> A              
     e( 36 - 36) =     -8.44845  eV     1   --> A              
     e( 37 - 37) =     -8.23921  eV     1   --> A              
     e( 38 - 38) =     -7.47634  eV     1   --> A              
     e( 39 - 39) =     -7.47005  eV     1   --> A              
     e( 40 - 40) =     -7.42732  eV     1   --> A              
     e( 41 - 41) =     -3.83079  eV     1   --> A              
     e( 42 - 42) =     -3.52786  eV     1   --> A              
     e( 43 - 43) =     -3.06075  eV     1   --> A              
     e( 44 - 44) =     -2.97063  eV     1   --> A              
     e( 45 - 45) =     -2.83056  eV     1   --> A              
     e( 46 - 46) =     -2.62256  eV     1   --> A              
     e( 47 - 47) =     -2.58936  eV     1   --> A              
     e( 48 - 48) =     -1.81335  eV     1   --> A              
     e( 49 - 49) =     -1.73280  eV     1   --> A              
     e( 50 - 50) =     -1.55673  eV     1   --> A              
     e( 51 - 51) =     -1.28993  eV     1   --> A              
     e( 52 - 52) =     -1.20547  eV     1   --> A              
     e( 53 - 53) =     -1.19406  eV     1   --> A              
     e( 54 - 54) =     -0.75627  eV     1   --> A              
     e( 55 - 55) =     -0.71308  eV     1   --> A              
     e( 56 - 56) =     -0.63639  eV     1   --> A              
     e( 57 - 57) =     -0.38421  eV     1   --> A              
     e( 58 - 58) =     -0.25794  eV     1   --> A              
     e( 59 - 59) =     -0.07934  eV     1   --> A              
     e( 60 - 60) =     -0.06124  eV     1   --> A              
     e( 61 - 61) =      0.22143  eV     1   --> A              
     e( 62 - 62) =      0.44052  eV     1   --> A              
     e( 63 - 63) =      0.94271  eV     1   --> A              
     e( 64 - 64) =      1.00874  eV     1   --> A              
     e( 65 - 65) =      1.01608  eV     1   --> A              
     e( 66 - 66) =      1.08070  eV     1   --> A              
     e( 67 - 67) =      1.13926  eV     1   --> A              
     e( 68 - 68) =      1.20717  eV     1   --> A              
     e( 69 - 69) =      1.54346  eV     1   --> A              
     e( 70 - 70) =      1.57929  eV     1   --> A              
     e( 71 - 71) =      1.80351  eV     1   --> A              
     e( 72 - 72) =      1.91190  eV     1   --> A              
     e( 73 - 73) =      2.01562  eV     1   --> A              
     e( 74 - 74) =      2.50139  eV     1   --> A              
     e( 75 - 75) =      2.52905  eV     1   --> A              
     e( 76 - 76) =      2.60532  eV     1   --> A              
     e( 77 - 77) =      2.74741  eV     1   --> A              
     e( 78 - 78) =      2.78100  eV     1   --> A              
     e( 79 - 79) =      2.82307  eV     1   --> A              
     e( 80 - 80) =      3.15929  eV     1   --> A              
     e( 81 - 81) =      3.22021  eV     1   --> A              
     e( 82 - 82) =      3.34353  eV     1   --> A              
     e( 83 - 83) =      3.41015  eV     1   --> A              
     e( 84 - 84) =      3.51902  eV     1   --> A              
     e( 85 - 85) =      3.99457  eV     1   --> A              
     e( 86 - 86) =      4.13502  eV     1   --> A              

 **************************************************************************

 **************************************************************************

                    xk=(   0.14286,   0.14286,  -0.11180  )

     Band symmetry, C_1 (1)     point group:

     e(  1 -  1) =    -53.13685  eV     1   --> A              
     e(  2 -  2) =    -53.12218  eV     1   --> A              
     e(  3 -  3) =    -53.12173  eV     1   --> A              
     e(  4 -  4) =    -53.10751  eV     1   --> A              
     e(  5 -  5) =    -52.96327  eV     1   --> A              
     e(  6 -  6) =    -52.94928  eV     1   --> A              
     e(  7 -  7) =    -52.94791  eV     1   --> A              
     e(  8 -  8) =    -52.93432  eV     1   --> A              
     e(  9 -  9) =    -29.37927  eV     1   --> A              
     e( 10 - 10) =    -29.36727  eV     1   --> A              
     e( 11 - 11) =    -29.34014  eV     1   --> A              
     e( 12 - 12) =    -29.32796  eV     1   --> A              
     e( 13 - 13) =    -29.32780  eV     1   --> A              
     e( 14 - 14) =    -29.29717  eV     1   --> A              
     e( 15 - 15) =    -29.27265  eV     1   --> A              
     e( 16 - 16) =    -29.24754  eV     1   --> A              
     e( 17 - 17) =    -29.20778  eV     1   --> A              
     e( 18 - 18) =    -29.17411  eV     1   --> A              
     e( 19 - 19) =    -29.16082  eV     1   --> A              
     e( 20 - 20) =    -29.13710  eV     1   --> A              
     e( 21 - 21) =    -29.13633  eV     1   --> A              
     e( 22 - 22) =    -29.13351  eV     1   --> A              
     e( 23 - 23) =    -29.11555  eV     1   --> A              
     e( 24 - 24) =    -29.11233  eV     1   --> A              
     e( 25 - 25) =    -29.10858  eV     1   --> A              
     e( 26 - 26) =    -29.10364  eV     1   --> A              
     e( 27 - 27) =    -29.08651  eV     1   --> A              
     e( 28 - 28) =    -29.08507  eV     1   --> A              
     e( 29 - 29) =    -28.97529  eV     1   --> A              
     e( 30 - 30) =    -28.95369  eV     1   --> A              
     e( 31 - 31) =    -28.93131  eV     1   --> A              
     e( 32 - 32) =    -28.90813  eV     1   --> A              
     e( 33 - 33) =     -9.88283  eV     1   --> A              
     e( 34 - 34) =     -8.53573  eV     1   --> A              
     e( 35 - 35) =     -8.52469  eV     1   --> A              
     e( 36 - 36) =     -8.44845  eV     1   --> A              
     e( 37 - 37) =     -8.23921  eV     1   --> A              
     e( 38 - 38) =     -7.47634  eV     1   --> A              
     e( 39 - 39) =     -7.47005  eV     1   --> A              
     e( 40 - 40) =     -7.42732  eV     1   --> A              
     e( 41 - 41) =     -3.83079  eV     1   --> A              
     e( 42 - 42) =     -3.52786  eV     1   --> A              
     e( 43 - 43) =     -3.06075  eV     1   --> A              
     e( 44 - 44) =     -2.97063  eV     1   --> A              
     e( 45 - 45) =     -2.83056  eV     1   --> A              
     e( 46 - 46) =     -2.62256  eV     1   --> A              
     e( 47 - 47) =     -2.58936  eV     1   --> A              
     e( 48 - 48) =     -1.81335  eV     1   --> A              
     e( 49 - 49) =     -1.73280  eV     1   --> A              
     e( 50 - 50) =     -1.55673  eV     1   --> A              
     e( 51 - 51) =     -1.28993  eV     1   --> A              
     e( 52 - 52) =     -1.20548  eV     1   --> A              
     e( 53 - 53) =     -1.19406  eV     1   --> A              
     e( 54 - 54) =     -0.75627  eV     1   --> A              
     e( 55 - 55) =     -0.71308  eV     1   --> A              
     e( 56 - 56) =     -0.63639  eV     1   --> A              
     e( 57 - 57) =     -0.38421  eV     1   --> A              
     e( 58 - 58) =     -0.25794  eV     1   --> A              
     e( 59 - 59) =     -0.07935  eV     1   --> A              
     e( 60 - 60) =     -0.06124  eV     1   --> A              
     e( 61 - 61) =      0.22143  eV     1   --> A              
     e( 62 - 62) =      0.44052  eV     1   --> A              
     e( 63 - 63) =      0.94272  eV     1   --> A              
     e( 64 - 64) =      1.00873  eV     1   --> A              
     e( 65 - 65) =      1.01607  eV     1   --> A              
     e( 66 - 66) =      1.08070  eV     1   --> A              
     e( 67 - 67) =      1.13926  eV     1   --> A              
     e( 68 - 68) =      1.20716  eV     1   --> A              
     e( 69 - 69) =      1.54346  eV     1   --> A              
     e( 70 - 70) =      1.57929  eV     1   --> A              
     e( 71 - 71) =      1.80351  eV     1   --> A              
     e( 72 - 72) =      1.91189  eV     1   --> A              
     e( 73 - 73) =      2.01561  eV     1   --> A              
     e( 74 - 74) =      2.50138  eV     1   --> A              
     e( 75 - 75) =      2.52905  eV     1   --> A              
     e( 76 - 76) =      2.60532  eV     1   --> A              
     e( 77 - 77) =      2.74742  eV     1   --> A              
     e( 78 - 78) =      2.78100  eV     1   --> A              
     e( 79 - 79) =      2.82307  eV     1   --> A              
     e( 80 - 80) =      3.15929  eV     1   --> A              
     e( 81 - 81) =      3.22021  eV     1   --> A              
     e( 82 - 82) =      3.34353  eV     1   --> A              
     e( 83 - 83) =      3.41016  eV     1   --> A              
     e( 84 - 84) =      3.51902  eV     1   --> A              
     e( 85 - 85) =      3.99455  eV     1   --> A              
     e( 86 - 86) =      4.13505  eV     1   --> A              

 **************************************************************************

 **************************************************************************

                    xk=(   0.14286,   0.28571,   0.12578  )

     Band symmetry, C_1 (1)     point group:

     e(  1 -  1) =    -53.13460  eV     1   --> A              
     e(  2 -  2) =    -53.12444  eV     1   --> A              
     e(  3 -  3) =    -53.11954  eV     1   --> A              
     e(  4 -  4) =    -53.10970  eV     1   --> A              
     e(  5 -  5) =    -52.96091  eV     1   --> A              
     e(  6 -  6) =    -52.95028  eV     1   --> A              
     e(  7 -  7) =    -52.94697  eV     1   --> A              
     e(  8 -  8) =    -52.93662  eV     1   --> A              
     e(  9 -  9) =    -29.36126  eV     1   --> A              
     e( 10 - 10) =    -29.34716  eV     1   --> A              
     e( 11 - 11) =    -29.33424  eV     1   --> A              
     e( 12 - 12) =    -29.32360  eV     1   --> A              
     e( 13 - 13) =    -29.30934  eV     1   --> A              
     e( 14 - 14) =    -29.30083  eV     1   --> A              
     e( 15 - 15) =    -29.26890  eV     1   --> A              
     e( 16 - 16) =    -29.25109  eV     1   --> A              
     e( 17 - 17) =    -29.19464  eV     1   --> A              
     e( 18 - 18) =    -29.17271  eV     1   --> A              
     e( 19 - 19) =    -29.16864  eV     1   --> A              
     e( 20 - 20) =    -29.14076  eV     1   --> A              
     e( 21 - 21) =    -29.13268  eV     1   --> A              
     e( 22 - 22) =    -29.12882  eV     1   --> A              
     e( 23 - 23) =    -29.11604  eV     1   --> A              
     e( 24 - 24) =    -29.11122  eV     1   --> A              
     e( 25 - 25) =    -29.10814  eV     1   --> A              
     e( 26 - 26) =    -29.10502  eV     1   --> A              
     e( 27 - 27) =    -29.09112  eV     1   --> A              
     e( 28 - 28) =    -29.08869  eV     1   --> A              
     e( 29 - 29) =    -29.01186  eV     1   --> A              
     e( 30 - 30) =    -28.98821  eV     1   --> A              
     e( 31 - 31) =    -28.92776  eV     1   --> A              
     e( 32 - 32) =    -28.91171  eV     1   --> A              
     e( 33 - 33) =     -9.70518  eV     1   --> A              
     e( 34 - 34) =     -8.77926  eV     1   --> A              
     e( 35 - 35) =     -8.47132  eV     1   --> A              
     e( 36 - 36) =     -8.32455  eV     1   --> A              
     e( 37 - 37) =     -8.27298  eV     1   --> A              
     e( 38 - 38) =     -7.67288  eV     1   --> A              
     e( 39 - 39) =     -7.45721  eV     1   --> A              
     e( 40 - 40) =     -7.42731  eV     1   --> A              
     e( 41 - 41) =     -3.46509  eV     1   --> A              
     e( 42 - 42) =     -3.37478  eV     1   --> A              
     e( 43 - 43) =     -2.90795  eV     1   --> A              
     e( 44 - 44) =     -2.88303  eV     1   --> A              
     e( 45 - 45) =     -2.80638  eV     1   --> A              
     e( 46 - 46) =     -2.75525  eV     1   --> A              
     e( 47 - 47) =     -2.42782  eV     1   --> A              
     e( 48 - 48) =     -1.73796  eV     1   --> A              
     e( 49 - 49) =     -1.57658  eV     1   --> A              
     e( 50 - 50) =     -1.57545  eV     1   --> A              
     e( 51 - 51) =     -1.49579  eV     1   --> A              
     e( 52 - 52) =     -1.34843  eV     1   --> A              
     e( 53 - 53) =     -1.28473  eV     1   --> A              
     e( 54 - 54) =     -0.94192  eV     1   --> A              
     e( 55 - 55) =     -0.82118  eV     1   --> A              
     e( 56 - 56) =     -0.71772  eV     1   --> A              
     e( 57 - 57) =     -0.53052  eV     1   --> A              
     e( 58 - 58) =     -0.50685  eV     1   --> A              
     e( 59 - 59) =     -0.03774  eV     1   --> A              
     e( 60 - 60) =      0.03300  eV     1   --> A              
     e( 61 - 61) =      0.46172  eV     1   --> A              
     e( 62 - 62) =      0.57174  eV     1   --> A              
     e( 63 - 63) =      0.67690  eV     1   --> A              
     e( 64 - 64) =      0.74129  eV     1   --> A              
     e( 65 - 65) =      0.99050  eV     1   --> A              
     e( 66 - 66) =      1.15456  eV     1   --> A              
     e( 67 - 67) =      1.20066  eV     1   --> A              
     e( 68 - 68) =      1.28843  eV     1   --> A              
     e( 69 - 69) =      1.51761  eV     1   --> A              
     e( 70 - 70) =      1.56527  eV     1   --> A              
     e( 71 - 71) =      1.82731  eV     1   --> A              
     e( 72 - 72) =      1.88905  eV     1   --> A              
     e( 73 - 73) =      1.95059  eV     1   --> A              
     e( 74 - 74) =      2.14109  eV     1   --> A              
     e( 75 - 75) =      2.23312  eV     1   --> A              
     e( 76 - 76) =      2.55295  eV     1   --> A              
     e( 77 - 77) =      2.73248  eV     1   --> A              
     e( 78 - 78) =      2.78838  eV     1   --> A              
     e( 79 - 79) =      2.83269  eV     1   --> A              
     e( 80 - 80) =      3.24625  eV     1   --> A              
     e( 81 - 81) =      3.33003  eV     1   --> A              
     e( 82 - 82) =      3.33482  eV     1   --> A              
     e( 83 - 83) =      3.46553  eV     1   --> A              
     e( 84 - 84) =      3.78460  eV     1   --> A              
     e( 85 - 85) =      3.86398  eV     1   --> A              
     e( 86 - 86) =      4.01598  eV     1   --> A              

 **************************************************************************

 **************************************************************************

                    xk=(   0.14286,   0.28571,  -0.06988  )

     Band symmetry, C_1 (1)     point group:

     e(  1 -  1) =    -53.13460  eV     1   --> A              
     e(  2 -  2) =    -53.12444  eV     1   --> A              
     e(  3 -  3) =    -53.11954  eV     1   --> A              
     e(  4 -  4) =    -53.10970  eV     1   --> A              
     e(  5 -  5) =    -52.96091  eV     1   --> A              
     e(  6 -  6) =    -52.95027  eV     1   --> A              
     e(  7 -  7) =    -52.94697  eV     1   --> A              
     e(  8 -  8) =    -52.93662  eV     1   --> A              
     e(  9 -  9) =    -29.36126  eV     1   --> A              
     e( 10 - 10) =    -29.34713  eV     1   --> A              
     e( 11 - 11) =    -29.33425  eV     1   --> A              
     e( 12 - 12) =    -29.32358  eV     1   --> A              
     e( 13 - 13) =    -29.30933  eV     1   --> A              
     e( 14 - 14) =    -29.30084  eV     1   --> A              
     e( 15 - 15) =    -29.26891  eV     1   --> A              
     e( 16 - 16) =    -29.25110  eV     1   --> A              
     e( 17 - 17) =    -29.19464  eV     1   --> A              
     e( 18 - 18) =    -29.17269  eV     1   --> A              
     e( 19 - 19) =    -29.16862  eV     1   --> A              
     e( 20 - 20) =    -29.14075  eV     1   --> A              
     e( 21 - 21) =    -29.13268  eV     1   --> A              
     e( 22 - 22) =    -29.12881  eV     1   --> A              
     e( 23 - 23) =    -29.11601  eV     1   --> A              
     e( 24 - 24) =    -29.11122  eV     1   --> A              
     e( 25 - 25) =    -29.10815  eV     1   --> A              
     e( 26 - 26) =    -29.10502  eV     1   --> A              
     e( 27 - 27) =    -29.09113  eV     1   --> A              
     e( 28 - 28) =    -29.08865  eV     1   --> A              
     e( 29 - 29) =    -29.01186  eV     1   --> A              
     e( 30 - 30) =    -28.98819  eV     1   --> A              
     e( 31 - 31) =    -28.92777  eV     1   --> A              
     e( 32 - 32) =    -28.91169  eV     1   --> A              
     e( 33 - 33) =     -9.70518  eV     1   --> A              
     e( 34 - 34) =     -8.77926  eV     1   --> A              
     e( 35 - 35) =     -8.47132  eV     1   --> A              
     e( 36 - 36) =     -8.32455  eV     1   --> A              
     e( 37 - 37) =     -8.27298  eV     1   --> A              
     e( 38 - 38) =     -7.67288  eV     1   --> A              
     e( 39 - 39) =     -7.45721  eV     1   --> A              
     e( 40 - 40) =     -7.42731  eV     1   --> A              
     e( 41 - 41) =     -3.46509  eV     1   --> A              
     e( 42 - 42) =     -3.37478  eV     1   --> A              
     e( 43 - 43) =     -2.90795  eV     1   --> A              
     e( 44 - 44) =     -2.88303  eV     1   --> A              
     e( 45 - 45) =     -2.80638  eV     1   --> A              
     e( 46 - 46) =     -2.75525  eV     1   --> A              
     e( 47 - 47) =     -2.42782  eV     1   --> A              
     e( 48 - 48) =     -1.73797  eV     1   --> A              
     e( 49 - 49) =     -1.57658  eV     1   --> A              
     e( 50 - 50) =     -1.57545  eV     1   --> A              
     e( 51 - 51) =     -1.49579  eV     1   --> A              
     e( 52 - 52) =     -1.34843  eV     1   --> A              
     e( 53 - 53) =     -1.28473  eV     1   --> A              
     e( 54 - 54) =     -0.94192  eV     1   --> A              
     e( 55 - 55) =     -0.82118  eV     1   --> A              
     e( 56 - 56) =     -0.71772  eV     1   --> A              
     e( 57 - 57) =     -0.53052  eV     1   --> A              
     e( 58 - 58) =     -0.50684  eV     1   --> A              
     e( 59 - 59) =     -0.03774  eV     1   --> A              
     e( 60 - 60) =      0.03301  eV     1   --> A              
     e( 61 - 61) =      0.46172  eV     1   --> A              
     e( 62 - 62) =      0.57174  eV     1   --> A              
     e( 63 - 63) =      0.67690  eV     1   --> A              
     e( 64 - 64) =      0.74130  eV     1   --> A              
     e( 65 - 65) =      0.99050  eV     1   --> A              
     e( 66 - 66) =      1.15456  eV     1   --> A              
     e( 67 - 67) =      1.20066  eV     1   --> A              
     e( 68 - 68) =      1.28843  eV     1   --> A              
     e( 69 - 69) =      1.51761  eV     1   --> A              
     e( 70 - 70) =      1.56528  eV     1   --> A              
     e( 71 - 71) =      1.82730  eV     1   --> A              
     e( 72 - 72) =      1.88905  eV     1   --> A              
     e( 73 - 73) =      1.95060  eV     1   --> A              
     e( 74 - 74) =      2.14109  eV     1   --> A              
     e( 75 - 75) =      2.23313  eV     1   --> A              
     e( 76 - 76) =      2.55295  eV     1   --> A              
     e( 77 - 77) =      2.73249  eV     1   --> A              
     e( 78 - 78) =      2.78839  eV     1   --> A              
     e( 79 - 79) =      2.83269  eV     1   --> A              
     e( 80 - 80) =      3.24625  eV     1   --> A              
     e( 81 - 81) =      3.33003  eV     1   --> A              
     e( 82 - 82) =      3.33484  eV     1   --> A              
     e( 83 - 83) =      3.46554  eV     1   --> A              
     e( 84 - 84) =      3.78460  eV     1   --> A              
     e( 85 - 85) =      3.86401  eV     1   --> A              
     e( 86 - 86) =      4.02532  eV     1   --> A              

 **************************************************************************

 **************************************************************************

                    xk=(   0.14286,   0.42857,   0.16771  )

     Band symmetry, C_1 (1)     point group:

     e(  1 -  1) =    -53.13134  eV     1   --> A              
     e(  2 -  2) =    -53.12771  eV     1   --> A              
     e(  3 -  3) =    -53.11638  eV     1   --> A              
     e(  4 -  4) =    -53.11287  eV     1   --> A              
     e(  5 -  5) =    -52.95750  eV     1   --> A              
     e(  6 -  6) =    -52.95370  eV     1   --> A              
     e(  7 -  7) =    -52.94365  eV     1   --> A              
     e(  8 -  8) =    -52.93995  eV     1   --> A              
     e(  9 -  9) =    -29.35259  eV     1   --> A              
     e( 10 - 10) =    -29.34292  eV     1   --> A              
     e( 11 - 11) =    -29.31754  eV     1   --> A              
     e( 12 - 12) =    -29.31406  eV     1   --> A              
     e( 13 - 13) =    -29.29261  eV     1   --> A              
     e( 14 - 14) =    -29.26729  eV     1   --> A              
     e( 15 - 15) =    -29.26373  eV     1   --> A              
     e( 16 - 16) =    -29.25400  eV     1   --> A              
     e( 17 - 17) =    -29.24286  eV     1   --> A              
     e( 18 - 18) =    -29.21368  eV     1   --> A              
     e( 19 - 19) =    -29.12737  eV     1   --> A              
     e( 20 - 20) =    -29.12249  eV     1   --> A              
     e( 21 - 21) =    -29.12211  eV     1   --> A              
     e( 22 - 22) =    -29.12059  eV     1   --> A              
     e( 23 - 23) =    -29.11476  eV     1   --> A              
     e( 24 - 24) =    -29.10491  eV     1   --> A              
     e( 25 - 25) =    -29.09989  eV     1   --> A              
     e( 26 - 26) =    -29.09815  eV     1   --> A              
     e( 27 - 27) =    -29.09385  eV     1   --> A              
     e( 28 - 28) =    -29.09170  eV     1   --> A              
     e( 29 - 29) =    -29.06409  eV     1   --> A              
     e( 30 - 30) =    -29.03766  eV     1   --> A              
     e( 31 - 31) =    -28.92262  eV     1   --> A              
     e( 32 - 32) =    -28.91688  eV     1   --> A              
     e( 33 - 33) =     -9.43292  eV     1   --> A              
     e( 34 - 34) =     -9.10445  eV     1   --> A              
     e( 35 - 35) =     -8.39980  eV     1   --> A              
     e( 36 - 36) =     -8.32879  eV     1   --> A              
     e( 37 - 37) =     -8.13644  eV     1   --> A              
     e( 38 - 38) =     -7.90870  eV     1   --> A              
     e( 39 - 39) =     -7.44248  eV     1   --> A              
     e( 40 - 40) =     -7.43171  eV     1   --> A              
     e( 41 - 41) =     -3.17050  eV     1   --> A              
     e( 42 - 42) =     -3.08692  eV     1   --> A              
     e( 43 - 43) =     -2.95784  eV     1   --> A              
     e( 44 - 44) =     -2.86080  eV     1   --> A              
     e( 45 - 45) =     -2.76763  eV     1   --> A              
     e( 46 - 46) =     -2.75582  eV     1   --> A              
     e( 47 - 47) =     -2.09635  eV     1   --> A              
     e( 48 - 48) =     -1.82886  eV     1   --> A              
     e( 49 - 49) =     -1.80373  eV     1   --> A              
     e( 50 - 50) =     -1.70284  eV     1   --> A              
     e( 51 - 51) =     -1.36014  eV     1   --> A              
     e( 52 - 52) =     -1.34968  eV     1   --> A              
     e( 53 - 53) =     -1.16432  eV     1   --> A              
     e( 54 - 54) =     -1.13019  eV     1   --> A              
     e( 55 - 55) =     -1.06546  eV     1   --> A              
     e( 56 - 56) =     -0.89863  eV     1   --> A              
     e( 57 - 57) =     -0.61416  eV     1   --> A              
     e( 58 - 58) =     -0.54636  eV     1   --> A              
     e( 59 - 59) =     -0.05730  eV     1   --> A              
     e( 60 - 60) =      0.09870  eV     1   --> A              
     e( 61 - 61) =      0.24001  eV     1   --> A              
     e( 62 - 62) =      0.37388  eV     1   --> A              
     e( 63 - 63) =      0.72115  eV     1   --> A              
     e( 64 - 64) =      0.92198  eV     1   --> A              
     e( 65 - 65) =      0.99832  eV     1   --> A              
     e( 66 - 66) =      1.15212  eV     1   --> A              
     e( 67 - 67) =      1.39325  eV     1   --> A              
     e( 68 - 68) =      1.56015  eV     1   --> A              
     e( 69 - 69) =      1.60826  eV     1   --> A              
     e( 70 - 70) =      1.62555  eV     1   --> A              
     e( 71 - 71) =      1.70922  eV     1   --> A              
     e( 72 - 72) =      1.79466  eV     1   --> A              
     e( 73 - 73) =      1.83922  eV     1   --> A              
     e( 74 - 74) =      1.83977  eV     1   --> A              
     e( 75 - 75) =      2.09123  eV     1   --> A              
     e( 76 - 76) =      2.29335  eV     1   --> A              
     e( 77 - 77) =      2.66201  eV     1   --> A              
     e( 78 - 78) =      2.73468  eV     1   --> A              
     e( 79 - 79) =      2.88548  eV     1   --> A              
[...]
     e( 51 - 51) =     -1.46733  eV     1   --> A              
     e( 52 - 52) =     -1.33174  eV     1   --> A              
     e( 53 - 53) =     -1.20456  eV     1   --> A              
     e( 54 - 54) =     -1.03719  eV     1   --> A              
     e( 55 - 55) =     -0.99891  eV     1   --> A              
     e( 56 - 56) =     -0.99343  eV     1   --> A              
     e( 57 - 57) =     -0.72892  eV     1   --> A              
     e( 58 - 58) =     -0.65282  eV     1   --> A              
     e( 59 - 59) =     -0.33187  eV     1   --> A              
     e( 60 - 60) =     -0.16252  eV     1   --> A              
     e( 61 - 61) =      0.12072  eV     1   --> A              
     e( 62 - 62) =      0.39640  eV     1   --> A              
     e( 63 - 63) =      0.51863  eV     1   --> A              
     e( 64 - 64) =      0.55513  eV     1   --> A              
     e( 65 - 65) =      0.85772  eV     1   --> A              
     e( 66 - 66) =      0.92530  eV     1   --> A              
     e( 67 - 67) =      1.34690  eV     1   --> A              
     e( 68 - 68) =      1.45186  eV     1   --> A              
     e( 69 - 69) =      1.45406  eV     1   --> A              
     e( 70 - 70) =      1.61608  eV     1   --> A              
     e( 71 - 71) =      1.66039  eV     1   --> A              
     e( 72 - 72) =      1.67461  eV     1   --> A              
     e( 73 - 73) =      1.92916  eV     1   --> A              
     e( 74 - 74) =      1.93926  eV     1   --> A              
     e( 75 - 75) =      2.07978  eV     1   --> A              
     e( 76 - 76) =      2.17362  eV     1   --> A              
     e( 77 - 77) =      2.96767  eV     1   --> A              
     e( 78 - 78) =      2.99336  eV     1   --> A              
     e( 79 - 79) =      3.10446  eV     1   --> A              
     e( 80 - 80) =      3.11906  eV     1   --> A              
     e( 81 - 81) =      3.32290  eV     1   --> A              
     e( 82 - 82) =      3.44198  eV     1   --> A              
     e( 83 - 83) =      3.46457  eV     1   --> A              
     e( 84 - 84) =      3.65239  eV     1   --> A              
     e( 85 - 85) =      3.77306  eV     1   --> A              
     e( 86 - 86) =      4.11498  eV     1   --> A              

 **************************************************************************

 **************************************************************************

                    xk=(  -0.42857,  -0.28571,  -0.01398  )

     Band symmetry, C_1 (1)     point group:

     e(  1 -  1) =    -53.12894  eV     1   --> A              
     e(  2 -  2) =    -53.12522  eV     1   --> A              
     e(  3 -  3) =    -53.11890  eV     1   --> A              
     e(  4 -  4) =    -53.11526  eV     1   --> A              
     e(  5 -  5) =    -52.95567  eV     1   --> A              
     e(  6 -  6) =    -52.95222  eV     1   --> A              
     e(  7 -  7) =    -52.94514  eV     1   --> A              
     e(  8 -  8) =    -52.94176  eV     1   --> A              
     e(  9 -  9) =    -29.33329  eV     1   --> A              
     e( 10 - 10) =    -29.32426  eV     1   --> A              
     e( 11 - 11) =    -29.30824  eV     1   --> A              
     e( 12 - 12) =    -29.30799  eV     1   --> A              
     e( 13 - 13) =    -29.28586  eV     1   --> A              
     e( 14 - 14) =    -29.28349  eV     1   --> A              
     e( 15 - 15) =    -29.25541  eV     1   --> A              
     e( 16 - 16) =    -29.23721  eV     1   --> A              
     e( 17 - 17) =    -29.21428  eV     1   --> A              
     e( 18 - 18) =    -29.19532  eV     1   --> A              
     e( 19 - 19) =    -29.18468  eV     1   --> A              
     e( 20 - 20) =    -29.17837  eV     1   --> A              
     e( 21 - 21) =    -29.16076  eV     1   --> A              
     e( 22 - 22) =    -29.15287  eV     1   --> A              
     e( 23 - 23) =    -29.11522  eV     1   --> A              
     e( 24 - 24) =    -29.10839  eV     1   --> A              
     e( 25 - 25) =    -29.09706  eV     1   --> A              
     e( 26 - 26) =    -29.09120  eV     1   --> A              
     e( 27 - 27) =    -29.05029  eV     1   --> A              
     e( 28 - 28) =    -29.02956  eV     1   --> A              
     e( 29 - 29) =    -29.00676  eV     1   --> A              
     e( 30 - 30) =    -28.99997  eV     1   --> A              
     e( 31 - 31) =    -28.99691  eV     1   --> A              
     e( 32 - 32) =    -28.98465  eV     1   --> A              
     e( 33 - 33) =     -9.31497  eV     1   --> A              
     e( 34 - 34) =     -9.02183  eV     1   --> A              
     e( 35 - 35) =     -8.60326  eV     1   --> A              
     e( 36 - 36) =     -8.48030  eV     1   --> A              
     e( 37 - 37) =     -8.00967  eV     1   --> A              
     e( 38 - 38) =     -7.79224  eV     1   --> A              
     e( 39 - 39) =     -7.55675  eV     1   --> A              
     e( 40 - 40) =     -7.49284  eV     1   --> A              
     e( 41 - 41) =     -3.12285  eV     1   --> A              
     e( 42 - 42) =     -2.96547  eV     1   --> A              
     e( 43 - 43) =     -2.57249  eV     1   --> A              
     e( 44 - 44) =     -2.53131  eV     1   --> A              
     e( 45 - 45) =     -2.49600  eV     1   --> A              
     e( 46 - 46) =     -2.40144  eV     1   --> A              
     e( 47 - 47) =     -2.29595  eV     1   --> A              
     e( 48 - 48) =     -1.95294  eV     1   --> A              
     e( 49 - 49) =     -1.91436  eV     1   --> A              
     e( 50 - 50) =     -1.75434  eV     1   --> A              
     e( 51 - 51) =     -1.46733  eV     1   --> A              
     e( 52 - 52) =     -1.33174  eV     1   --> A              
     e( 53 - 53) =     -1.20456  eV     1   --> A              
     e( 54 - 54) =     -1.03719  eV     1   --> A              
     e( 55 - 55) =     -0.99891  eV     1   --> A              
     e( 56 - 56) =     -0.99342  eV     1   --> A              
     e( 57 - 57) =     -0.72892  eV     1   --> A              
     e( 58 - 58) =     -0.65282  eV     1   --> A              
     e( 59 - 59) =     -0.33187  eV     1   --> A              
     e( 60 - 60) =     -0.16252  eV     1   --> A              
     e( 61 - 61) =      0.12072  eV     1   --> A              
     e( 62 - 62) =      0.39640  eV     1   --> A              
     e( 63 - 63) =      0.51863  eV     1   --> A              
     e( 64 - 64) =      0.55513  eV     1   --> A              
     e( 65 - 65) =      0.85772  eV     1   --> A              
     e( 66 - 66) =      0.92530  eV     1   --> A              
     e( 67 - 67) =      1.34691  eV     1   --> A              
     e( 68 - 68) =      1.45187  eV     1   --> A              
     e( 69 - 69) =      1.45406  eV     1   --> A              
     e( 70 - 70) =      1.61609  eV     1   --> A              
     e( 71 - 71) =      1.66039  eV     1   --> A              
     e( 72 - 72) =      1.67461  eV     1   --> A              
     e( 73 - 73) =      1.92915  eV     1   --> A              
     e( 74 - 74) =      1.93926  eV     1   --> A              
     e( 75 - 75) =      2.07978  eV     1   --> A              
     e( 76 - 76) =      2.17362  eV     1   --> A              
     e( 77 - 77) =      2.96767  eV     1   --> A              
     e( 78 - 78) =      2.99336  eV     1   --> A              
     e( 79 - 79) =      3.10450  eV     1   --> A              
     e( 80 - 80) =      3.11905  eV     1   --> A              
     e( 81 - 81) =      3.32288  eV     1   --> A              
     e( 82 - 82) =      3.44197  eV     1   --> A              
     e( 83 - 83) =      3.46456  eV     1   --> A              
     e( 84 - 84) =      3.65238  eV     1   --> A              
     e( 85 - 85) =      3.77307  eV     1   --> A              
     e( 86 - 86) =      4.11505  eV     1   --> A              

 **************************************************************************

 **************************************************************************

                    xk=(   0.42857,  -0.28571,   0.04193  )

     Band symmetry, C_1 (1)     point group:

     e(  1 -  1) =    -53.12894  eV     1   --> A              
     e(  2 -  2) =    -53.12522  eV     1   --> A              
     e(  3 -  3) =    -53.11890  eV     1   --> A              
     e(  4 -  4) =    -53.11526  eV     1   --> A              
     e(  5 -  5) =    -52.95567  eV     1   --> A              
     e(  6 -  6) =    -52.95223  eV     1   --> A              
     e(  7 -  7) =    -52.94514  eV     1   --> A              
     e(  8 -  8) =    -52.94177  eV     1   --> A              
     e(  9 -  9) =    -29.33330  eV     1   --> A              
     e( 10 - 10) =    -29.32427  eV     1   --> A              
     e( 11 - 11) =    -29.30824  eV     1   --> A              
     e( 12 - 12) =    -29.30800  eV     1   --> A              
     e( 13 - 13) =    -29.28586  eV     1   --> A              
     e( 14 - 14) =    -29.28347  eV     1   --> A              
     e( 15 - 15) =    -29.25542  eV     1   --> A              
     e( 16 - 16) =    -29.23723  eV     1   --> A              
     e( 17 - 17) =    -29.21428  eV     1   --> A              
     e( 18 - 18) =    -29.19532  eV     1   --> A              
     e( 19 - 19) =    -29.18468  eV     1   --> A              
     e( 20 - 20) =    -29.17838  eV     1   --> A              
     e( 21 - 21) =    -29.16076  eV     1   --> A              
     e( 22 - 22) =    -29.15288  eV     1   --> A              
     e( 23 - 23) =    -29.11524  eV     1   --> A              
     e( 24 - 24) =    -29.10838  eV     1   --> A              
     e( 25 - 25) =    -29.09711  eV     1   --> A              
     e( 26 - 26) =    -29.09122  eV     1   --> A              
     e( 27 - 27) =    -29.05029  eV     1   --> A              
     e( 28 - 28) =    -29.02959  eV     1   --> A              
     e( 29 - 29) =    -29.00677  eV     1   --> A              
     e( 30 - 30) =    -28.99997  eV     1   --> A              
     e( 31 - 31) =    -28.99693  eV     1   --> A              
     e( 32 - 32) =    -28.98466  eV     1   --> A              
     e( 33 - 33) =     -9.31497  eV     1   --> A              
     e( 34 - 34) =     -9.02183  eV     1   --> A              
     e( 35 - 35) =     -8.60326  eV     1   --> A              
     e( 36 - 36) =     -8.48030  eV     1   --> A              
     e( 37 - 37) =     -8.00968  eV     1   --> A              
     e( 38 - 38) =     -7.79224  eV     1   --> A              
     e( 39 - 39) =     -7.55675  eV     1   --> A              
     e( 40 - 40) =     -7.49284  eV     1   --> A              
     e( 41 - 41) =     -3.12285  eV     1   --> A              
     e( 42 - 42) =     -2.96547  eV     1   --> A              
     e( 43 - 43) =     -2.57249  eV     1   --> A              
     e( 44 - 44) =     -2.53131  eV     1   --> A              
     e( 45 - 45) =     -2.49600  eV     1   --> A              
     e( 46 - 46) =     -2.40144  eV     1   --> A              
     e( 47 - 47) =     -2.29595  eV     1   --> A              
     e( 48 - 48) =     -1.95294  eV     1   --> A              
     e( 49 - 49) =     -1.91436  eV     1   --> A              
     e( 50 - 50) =     -1.75434  eV     1   --> A              
     e( 51 - 51) =     -1.46733  eV     1   --> A              
     e( 52 - 52) =     -1.33174  eV     1   --> A              
     e( 53 - 53) =     -1.20456  eV     1   --> A              
     e( 54 - 54) =     -1.03719  eV     1   --> A              
     e( 55 - 55) =     -0.99891  eV     1   --> A              
     e( 56 - 56) =     -0.99343  eV     1   --> A              
     e( 57 - 57) =     -0.72892  eV     1   --> A              
     e( 58 - 58) =     -0.65282  eV     1   --> A              
     e( 59 - 59) =     -0.33188  eV     1   --> A              
     e( 60 - 60) =     -0.16252  eV     1   --> A              
     e( 61 - 61) =      0.12072  eV     1   --> A              
     e( 62 - 62) =      0.39640  eV     1   --> A              
     e( 63 - 63) =      0.51863  eV     1   --> A              
     e( 64 - 64) =      0.55513  eV     1   --> A              
     e( 65 - 65) =      0.85772  eV     1   --> A              
     e( 66 - 66) =      0.92530  eV     1   --> A              
     e( 67 - 67) =      1.34690  eV     1   --> A              
     e( 68 - 68) =      1.45186  eV     1   --> A              
     e( 69 - 69) =      1.45406  eV     1   --> A              
     e( 70 - 70) =      1.61608  eV     1   --> A              
     e( 71 - 71) =      1.66039  eV     1   --> A              
     e( 72 - 72) =      1.67461  eV     1   --> A              
     e( 73 - 73) =      1.92915  eV     1   --> A              
     e( 74 - 74) =      1.93926  eV     1   --> A              
     e( 75 - 75) =      2.07978  eV     1   --> A              
     e( 76 - 76) =      2.17362  eV     1   --> A              
     e( 77 - 77) =      2.96767  eV     1   --> A              
     e( 78 - 78) =      2.99335  eV     1   --> A              
     e( 79 - 79) =      3.10450  eV     1   --> A              
     e( 80 - 80) =      3.11905  eV     1   --> A              
     e( 81 - 81) =      3.32289  eV     1   --> A              
     e( 82 - 82) =      3.44199  eV     1   --> A              
     e( 83 - 83) =      3.46455  eV     1   --> A              
     e( 84 - 84) =      3.65239  eV     1   --> A              
     e( 85 - 85) =      3.77307  eV     1   --> A              
     e( 86 - 86) =      4.11503  eV     1   --> A              

 **************************************************************************

 **************************************************************************

                    xk=(   0.42857,  -0.28571,   0.23758  )

     Band symmetry, C_1 (1)     point group:

     e(  1 -  1) =    -53.12894  eV     1   --> A              
     e(  2 -  2) =    -53.12522  eV     1   --> A              
     e(  3 -  3) =    -53.11890  eV     1   --> A              
     e(  4 -  4) =    -53.11526  eV     1   --> A              
     e(  5 -  5) =    -52.95567  eV     1   --> A              
     e(  6 -  6) =    -52.95222  eV     1   --> A              
     e(  7 -  7) =    -52.94514  eV     1   --> A              
     e(  8 -  8) =    -52.94177  eV     1   --> A              
     e(  9 -  9) =    -29.33328  eV     1   --> A              
     e( 10 - 10) =    -29.32427  eV     1   --> A              
     e( 11 - 11) =    -29.30823  eV     1   --> A              
     e( 12 - 12) =    -29.30798  eV     1   --> A              
     e( 13 - 13) =    -29.28586  eV     1   --> A              
     e( 14 - 14) =    -29.28349  eV     1   --> A              
     e( 15 - 15) =    -29.25541  eV     1   --> A              
     e( 16 - 16) =    -29.23723  eV     1   --> A              
     e( 17 - 17) =    -29.21427  eV     1   --> A              
     e( 18 - 18) =    -29.19529  eV     1   --> A              
     e( 19 - 19) =    -29.18468  eV     1   --> A              
     e( 20 - 20) =    -29.17837  eV     1   --> A              
     e( 21 - 21) =    -29.16075  eV     1   --> A              
     e( 22 - 22) =    -29.15288  eV     1   --> A              
     e( 23 - 23) =    -29.11524  eV     1   --> A              
     e( 24 - 24) =    -29.10840  eV     1   --> A              
     e( 25 - 25) =    -29.09709  eV     1   --> A              
     e( 26 - 26) =    -29.09118  eV     1   --> A              
     e( 27 - 27) =    -29.05030  eV     1   --> A              
     e( 28 - 28) =    -29.02958  eV     1   --> A              
     e( 29 - 29) =    -29.00674  eV     1   --> A              
     e( 30 - 30) =    -28.99997  eV     1   --> A              
     e( 31 - 31) =    -28.99691  eV     1   --> A              
     e( 32 - 32) =    -28.98464  eV     1   --> A              
     e( 33 - 33) =     -9.31498  eV     1   --> A              
     e( 34 - 34) =     -9.02183  eV     1   --> A              
     e( 35 - 35) =     -8.60326  eV     1   --> A              
     e( 36 - 36) =     -8.48030  eV     1   --> A              
     e( 37 - 37) =     -8.00967  eV     1   --> A              
     e( 38 - 38) =     -7.79224  eV     1   --> A              
     e( 39 - 39) =     -7.55675  eV     1   --> A              
     e( 40 - 40) =     -7.49284  eV     1   --> A              
     e( 41 - 41) =     -3.12285  eV     1   --> A              
     e( 42 - 42) =     -2.96547  eV     1   --> A              
     e( 43 - 43) =     -2.57249  eV     1   --> A              
     e( 44 - 44) =     -2.53131  eV     1   --> A              
     e( 45 - 45) =     -2.49600  eV     1   --> A              
     e( 46 - 46) =     -2.40144  eV     1   --> A              
     e( 47 - 47) =     -2.29595  eV     1   --> A              
     e( 48 - 48) =     -1.95295  eV     1   --> A              
     e( 49 - 49) =     -1.91435  eV     1   --> A              
     e( 50 - 50) =     -1.75434  eV     1   --> A              
     e( 51 - 51) =     -1.46733  eV     1   --> A              
     e( 52 - 52) =     -1.33174  eV     1   --> A              
     e( 53 - 53) =     -1.20456  eV     1   --> A              
     e( 54 - 54) =     -1.03719  eV     1   --> A              
     e( 55 - 55) =     -0.99891  eV     1   --> A              
     e( 56 - 56) =     -0.99342  eV     1   --> A              
     e( 57 - 57) =     -0.72892  eV     1   --> A              
     e( 58 - 58) =     -0.65281  eV     1   --> A              
     e( 59 - 59) =     -0.33188  eV     1   --> A              
     e( 60 - 60) =     -0.16252  eV     1   --> A              
     e( 61 - 61) =      0.12072  eV     1   --> A              
     e( 62 - 62) =      0.39640  eV     1   --> A              
     e( 63 - 63) =      0.51863  eV     1   --> A              
     e( 64 - 64) =      0.55513  eV     1   --> A              
     e( 65 - 65) =      0.85771  eV     1   --> A              
     e( 66 - 66) =      0.92530  eV     1   --> A              
     e( 67 - 67) =      1.34691  eV     1   --> A              
     e( 68 - 68) =      1.45187  eV     1   --> A              
     e( 69 - 69) =      1.45406  eV     1   --> A              
     e( 70 - 70) =      1.61608  eV     1   --> A              
     e( 71 - 71) =      1.66040  eV     1   --> A              
     e( 72 - 72) =      1.67461  eV     1   --> A              
     e( 73 - 73) =      1.92916  eV     1   --> A              
     e( 74 - 74) =      1.93927  eV     1   --> A              
     e( 75 - 75) =      2.07978  eV     1   --> A              
     e( 76 - 76) =      2.17362  eV     1   --> A              
     e( 77 - 77) =      2.96767  eV     1   --> A              
     e( 78 - 78) =      2.99336  eV     1   --> A              
     e( 79 - 79) =      3.10447  eV     1   --> A              
     e( 80 - 80) =      3.11906  eV     1   --> A              
     e( 81 - 81) =      3.32291  eV     1   --> A              
     e( 82 - 82) =      3.44198  eV     1   --> A              
     e( 83 - 83) =      3.46457  eV     1   --> A              
     e( 84 - 84) =      3.65238  eV     1   --> A              
     e( 85 - 85) =      3.77306  eV     1   --> A              
     e( 86 - 86) =      4.11498  eV     1   --> A              

 **************************************************************************

     BANDS        :   2m25.18s CPU   2m 6.40s WALL


   This run was terminated on:  10:53:47  13Feb2024            

=------------------------------------------------------------------------------=
   JOB DONE.
=------------------------------------------------------------------------------=
