
     Program PWSCF v.7.2 starts on 15Feb2024 at 15:30:48 

     This program is part of the open-source Quantum ESPRESSO suite
     for quantum simulation of materials; please cite
         "P. Giannozzi et al., J. Phys.:Condens. Matter 21 395502 (2009);
         "P. Giannozzi et al., J. Phys.:Condens. Matter 29 465901 (2017);
         "P. Giannozzi et al., J. Chem. Phys. 152 154105 (2020);
          URL http://www.quantum-espresso.org", 
     in publications or presentations arising from this work. More details at
     http://www.quantum-espresso.org/quote

     Parallel version (MPI), running on     1 processors

     MPI processes distributed on     1 nodes
     185720 MiB available memory on the printing compute node when the environment starts
 
     Waiting for input...
     Reading input from standard input

     Current dimensions of program PWSCF are:
     Max number of different atomic species (ntypx) = 10
     Max number of k-points (npk) =  40000
     Max angular momentum in pseudopotentials (lmaxx) =  4
     file Nb.pbesol-spn-kjpaw_psl.0.3.0.UPF: wavefunction(s)  4S 4P renormalized
     Found identity + (  0.5000  0.0000  0.0000) symmetry
     This is a supercell, fractional translations are disabled
 
     Subspace diagonalization in iterative solution of the eigenvalue problem:
     a serial algorithm will be used

 
     G-vector sticks info
     --------------------
     sticks:   dense  smooth     PW     G-vecs:    dense   smooth      PW
     Sum        4093    2053    577               504019   178409   26543
 
     Using Slab Decomposition
 


     bravais-lattice index     =            0
     lattice parameter (alat)  =      12.6855  a.u.
     unit-cell volume          =    5216.7059 (a.u.)^3
     number of atoms/cell      =           16
     number of atomic types    =            2
     number of electrons       =       144.00
     number of Kohn-Sham states=           75
     kinetic-energy cutoff     =      40.0000  Ry
     charge density cutoff     =     320.0000  Ry
     scf convergence threshold =      8.0E-08
     mixing beta               =       0.4000
     number of iterations used =            8  plain     mixing
     Exchange-correlation= PBESOL
                           (   1   4  10   8   0   0   0)

     celldm(1)=  12.685497  celldm(2)=   0.000000  celldm(3)=   0.000000
     celldm(4)=   0.000000  celldm(5)=   0.000000  celldm(6)=   0.000000

     crystal axes: (cart. coord. in units of alat)
               a(1) = (   1.000000   0.000000   0.000000 )  
               a(2) = (   0.000000   1.000000   0.000000 )  
               a(3) = (  -0.750000  -0.750000   2.555488 )  

     reciprocal axes: (cart. coord. in units 2 pi/alat)
               b(1) = (  1.000000  0.000000  0.293486 )  
               b(2) = (  0.000000  1.000000  0.293486 )  
               b(3) = (  0.000000  0.000000  0.391315 )  


     PseudoPot. # 1 for Nb read from file:
     ./pseudo/Nb.pbesol-spn-kjpaw_psl.0.3.0.UPF
     MD5 check sum: 3501bca1474143575298708b2d32ca28
     Pseudo is Projector augmented-wave + core cor, Zval = 13.0
     Generated using "atomic" code by A. Dal Corso  v.6.0 svn rev. 13079
     Shape of augmentation charge: PSQ
     Using radial grid of 1227 points,  6 beta functions with: 
                l(1) =   0
                l(2) =   0
                l(3) =   1
                l(4) =   1
                l(5) =   2
                l(6) =   2
     Q(r) pseudized with 0 coefficients 


     PseudoPot. # 2 for P  read from file:
     ./pseudo/P.pbesol-n-rrkjus_psl.1.0.0.UPF
     MD5 check sum: bbb94b1b16383820d6a769669b5d42db
     Pseudo is Ultrasoft + core correction, Zval =  5.0
     Generated using "atomic" code by A. Dal Corso  v.6.0 svn rev. 13079
     Using radial grid of 1147 points,  6 beta functions with: 
                l(1) =   0
                l(2) =   0
                l(3) =   1
                l(4) =   1
                l(5) =   2
                l(6) =   2
     Q(r) pseudized with 0 coefficients 


     atomic species   valence    mass     pseudopotential
        Nb            13.00    92.90638     Nb( 1.00)
        P              5.00    30.97376     P ( 1.00)

     No symmetry found


                                    s                        frac. trans.

      isym =  1     identity                                     

 cryst.   s( 1) = (     1          0          0      )
                  (     0          1          0      )
                  (     0          0          1      )

 cart.    s( 1) = (  1.0000000  0.0000000  0.0000000 )
                  (  0.0000000  1.0000000  0.0000000 )
                  (  0.0000000  0.0000000  1.0000000 )


   Cartesian axes

     site n.     atom                  positions (alat units)
         1           Nb  tau(   1) = (   0.0000000   0.0000000   0.8516982  )
         2           Nb  tau(   2) = (   0.5000000   0.0000000   0.8516982  )
         3           Nb  tau(   3) = (   0.0000000   0.5000000   0.8516982  )
         4           Nb  tau(   4) = (   0.5000000   0.5000000   0.8516982  )
         5           Nb  tau(   5) = (   0.2500000   0.0000000   0.4257835  )
         6           Nb  tau(   6) = (   0.7500000   0.0000000   0.4257835  )
         7           Nb  tau(   7) = (   0.2500000   0.5000000   0.4257835  )
         8           Nb  tau(   8) = (   0.7500000   0.5000000   0.4257835  )
         9           P   tau(   9) = (   0.2500000   0.2500000   0.7111872  )
        10           P   tau(  10) = (   0.7500000   0.2500000   0.7111872  )
        11           P   tau(  11) = (   0.2500000   0.7500000   0.7111872  )
        12           P   tau(  12) = (   0.7500000   0.7500000   0.7111872  )
        13           P   tau(  13) = (   0.0000000   0.2500000   0.2852725  )
        14           P   tau(  14) = (   0.5000000   0.2500000   0.2852725  )
        15           P   tau(  15) = (   0.0000000   0.7500000   0.2852725  )
        16           P   tau(  16) = (   0.5000000   0.7500000   0.2852725  )

   Crystallographic axes

     site n.     atom                  positions (cryst. coord.)
         1           Nb  tau(   1) = (  0.2499615  0.2499615  0.3332820  )
         2           Nb  tau(   2) = (  0.7499615  0.2499615  0.3332820  )
         3           Nb  tau(   3) = (  0.2499615  0.7499615  0.3332820  )
         4           Nb  tau(   4) = (  0.7499615  0.7499615  0.3332820  )
         5           Nb  tau(   5) = (  0.3749615  0.1249615  0.1666153  )
         6           Nb  tau(   6) = (  0.8749615  0.1249615  0.1666153  )
         7           Nb  tau(   7) = (  0.3749615  0.6249615  0.1666153  )
         8           Nb  tau(   8) = (  0.8749615  0.6249615  0.1666153  )
         9           P   tau(   9) = (  0.4587235  0.4587235  0.2782980  )
        10           P   tau(  10) = (  0.9587235  0.4587235  0.2782980  )
        11           P   tau(  11) = (  0.4587235  0.9587235  0.2782980  )
        12           P   tau(  12) = (  0.9587235  0.9587235  0.2782980  )
        13           P   tau(  13) = (  0.0837235  0.3337235  0.1116313  )
        14           P   tau(  14) = (  0.5837235  0.3337235  0.1116313  )
        15           P   tau(  15) = (  0.0837235  0.8337235  0.1116313  )
        16           P   tau(  16) = (  0.5837235  0.8337235  0.1116313  )

     number of k points=   152  Marzari-Vanderbilt smearing, width (Ry)=  0.0073
                       cart. coord. in units 2pi/alat
        k(    1) = (   0.0000000   0.0000000   0.0000000), wk =   0.0066667
        k(    2) = (   0.0000000   0.0000000   0.1304382), wk =   0.0133333
        k(    3) = (   0.0000000   0.1000000   0.0293486), wk =   0.0133333
        k(    4) = (   0.0000000   0.1000000   0.1597868), wk =   0.0133333
        k(    5) = (   0.0000000   0.1000000  -0.1010896), wk =   0.0133333
        k(    6) = (   0.0000000   0.2000000   0.0586972), wk =   0.0133333
        k(    7) = (   0.0000000   0.2000000   0.1891354), wk =   0.0133333
        k(    8) = (   0.0000000   0.2000000  -0.0717410), wk =   0.0133333
        k(    9) = (   0.0000000   0.3000000   0.0880458), wk =   0.0133333
        k(   10) = (   0.0000000   0.3000000   0.2184840), wk =   0.0133333
        k(   11) = (   0.0000000   0.3000000  -0.0423924), wk =   0.0133333
        k(   12) = (   0.0000000   0.4000000   0.1173944), wk =   0.0133333
        k(   13) = (   0.0000000   0.4000000   0.2478326), wk =   0.0133333
        k(   14) = (   0.0000000   0.4000000  -0.0130438), wk =   0.0133333
        k(   15) = (   0.0000000  -0.5000000  -0.1467430), wk =   0.0066667
        k(   16) = (   0.0000000  -0.5000000  -0.0163048), wk =   0.0133333
        k(   17) = (   0.1000000   0.0000000   0.0293486), wk =   0.0133333
        k(   18) = (   0.1000000   0.0000000   0.1597868), wk =   0.0133333
        k(   19) = (   0.1000000   0.0000000  -0.1010896), wk =   0.0133333
        k(   20) = (   0.1000000   0.1000000   0.0586972), wk =   0.0133333
        k(   21) = (   0.1000000   0.1000000   0.1891354), wk =   0.0133333
        k(   22) = (   0.1000000   0.1000000  -0.0717410), wk =   0.0133333
        k(   23) = (   0.1000000   0.2000000   0.0880458), wk =   0.0133333
        k(   24) = (   0.1000000   0.2000000   0.2184840), wk =   0.0133333
        k(   25) = (   0.1000000   0.2000000  -0.0423924), wk =   0.0133333
        k(   26) = (   0.1000000   0.3000000   0.1173944), wk =   0.0133333
        k(   27) = (   0.1000000   0.3000000   0.2478326), wk =   0.0133333
        k(   28) = (   0.1000000   0.3000000  -0.0130438), wk =   0.0133333
        k(   29) = (   0.1000000   0.4000000   0.1467430), wk =   0.0133333
        k(   30) = (   0.1000000   0.4000000   0.2771812), wk =   0.0133333
        k(   31) = (   0.1000000   0.4000000   0.0163048), wk =   0.0133333
        k(   32) = (   0.1000000  -0.5000000  -0.1173944), wk =   0.0133333
        k(   33) = (   0.1000000  -0.5000000   0.0130438), wk =   0.0133333
        k(   34) = (   0.1000000  -0.5000000  -0.2478326), wk =   0.0133333
        k(   35) = (   0.1000000  -0.4000000  -0.0880458), wk =   0.0133333
        k(   36) = (   0.1000000  -0.4000000   0.0423924), wk =   0.0133333
        k(   37) = (   0.1000000  -0.4000000  -0.2184840), wk =   0.0133333
        k(   38) = (   0.1000000  -0.3000000  -0.0586972), wk =   0.0133333
        k(   39) = (   0.1000000  -0.3000000   0.0717410), wk =   0.0133333
        k(   40) = (   0.1000000  -0.3000000  -0.1891354), wk =   0.0133333
        k(   41) = (   0.1000000  -0.2000000  -0.0293486), wk =   0.0133333
        k(   42) = (   0.1000000  -0.2000000   0.1010896), wk =   0.0133333
        k(   43) = (   0.1000000  -0.2000000  -0.1597868), wk =   0.0133333
        k(   44) = (   0.1000000  -0.1000000   0.0000000), wk =   0.0133333
        k(   45) = (   0.1000000  -0.1000000   0.1304382), wk =   0.0133333
        k(   46) = (   0.1000000  -0.1000000  -0.1304382), wk =   0.0133333
        k(   47) = (   0.2000000   0.0000000   0.0586972), wk =   0.0133333
        k(   48) = (   0.2000000   0.0000000   0.1891354), wk =   0.0133333
        k(   49) = (   0.2000000   0.0000000  -0.0717410), wk =   0.0133333
        k(   50) = (   0.2000000   0.1000000   0.0880458), wk =   0.0133333
        k(   51) = (   0.2000000   0.1000000   0.2184840), wk =   0.0133333
        k(   52) = (   0.2000000   0.1000000  -0.0423924), wk =   0.0133333
        k(   53) = (   0.2000000   0.2000000   0.1173944), wk =   0.0133333
        k(   54) = (   0.2000000   0.2000000   0.2478326), wk =   0.0133333
        k(   55) = (   0.2000000   0.2000000  -0.0130438), wk =   0.0133333
        k(   56) = (   0.2000000   0.3000000   0.1467430), wk =   0.0133333
        k(   57) = (   0.2000000   0.3000000   0.2771812), wk =   0.0133333
        k(   58) = (   0.2000000   0.3000000   0.0163048), wk =   0.0133333
        k(   59) = (   0.2000000   0.4000000   0.1760916), wk =   0.0133333
        k(   60) = (   0.2000000   0.4000000   0.3065298), wk =   0.0133333
        k(   61) = (   0.2000000   0.4000000   0.0456534), wk =   0.0133333
        k(   62) = (   0.2000000  -0.5000000  -0.0880458), wk =   0.0133333
        k(   63) = (   0.2000000  -0.5000000   0.0423924), wk =   0.0133333
        k(   64) = (   0.2000000  -0.5000000  -0.2184840), wk =   0.0133333
        k(   65) = (   0.2000000  -0.4000000  -0.0586972), wk =   0.0133333
        k(   66) = (   0.2000000  -0.4000000   0.0717410), wk =   0.0133333
        k(   67) = (   0.2000000  -0.4000000  -0.1891354), wk =   0.0133333
        k(   68) = (   0.2000000  -0.3000000  -0.0293486), wk =   0.0133333
        k(   69) = (   0.2000000  -0.3000000   0.1010896), wk =   0.0133333
        k(   70) = (   0.2000000  -0.3000000  -0.1597868), wk =   0.0133333
        k(   71) = (   0.2000000  -0.2000000   0.0000000), wk =   0.0133333
        k(   72) = (   0.2000000  -0.2000000   0.1304382), wk =   0.0133333
        k(   73) = (   0.2000000  -0.2000000  -0.1304382), wk =   0.0133333
        k(   74) = (   0.2000000  -0.1000000   0.0293486), wk =   0.0133333
        k(   75) = (   0.2000000  -0.1000000   0.1597868), wk =   0.0133333
        k(   76) = (   0.2000000  -0.1000000  -0.1010896), wk =   0.0133333
        k(   77) = (   0.3000000   0.0000000   0.0880458), wk =   0.0133333
        k(   78) = (   0.3000000   0.0000000   0.2184840), wk =   0.0133333
        k(   79) = (   0.3000000   0.0000000  -0.0423924), wk =   0.0133333
        k(   80) = (   0.3000000   0.1000000   0.1173944), wk =   0.0133333
        k(   81) = (   0.3000000   0.1000000   0.2478326), wk =   0.0133333
        k(   82) = (   0.3000000   0.1000000  -0.0130438), wk =   0.0133333
        k(   83) = (   0.3000000   0.2000000   0.1467430), wk =   0.0133333
        k(   84) = (   0.3000000   0.2000000   0.2771812), wk =   0.0133333
        k(   85) = (   0.3000000   0.2000000   0.0163048), wk =   0.0133333
        k(   86) = (   0.3000000   0.3000000   0.1760916), wk =   0.0133333
        k(   87) = (   0.3000000   0.3000000   0.3065298), wk =   0.0133333
        k(   88) = (   0.3000000   0.3000000   0.0456534), wk =   0.0133333
        k(   89) = (   0.3000000   0.4000000   0.2054402), wk =   0.0133333
        k(   90) = (   0.3000000   0.4000000   0.3358784), wk =   0.0133333
        k(   91) = (   0.3000000   0.4000000   0.0750020), wk =   0.0133333
        k(   92) = (   0.3000000  -0.5000000  -0.0586972), wk =   0.0133333
        k(   93) = (   0.3000000  -0.5000000   0.0717410), wk =   0.0133333
        k(   94) = (   0.3000000  -0.5000000  -0.1891354), wk =   0.0133333
        k(   95) = (   0.3000000  -0.4000000  -0.0293486), wk =   0.0133333
        k(   96) = (   0.3000000  -0.4000000   0.1010896), wk =   0.0133333
        k(   97) = (   0.3000000  -0.4000000  -0.1597868), wk =   0.0133333
        k(   98) = (   0.3000000  -0.3000000  -0.0000000), wk =   0.0133333
        k(   99) = (   0.3000000  -0.3000000   0.1304382), wk =   0.0133333
        k(  100) = (   0.3000000  -0.3000000  -0.1304382), wk =   0.0133333
        k(  101) = (   0.3000000  -0.2000000   0.0293486), wk =   0.0133333
        k(  102) = (   0.3000000  -0.2000000   0.1597868), wk =   0.0133333
        k(  103) = (   0.3000000  -0.2000000  -0.1010896), wk =   0.0133333
        k(  104) = (   0.3000000  -0.1000000   0.0586972), wk =   0.0133333
        k(  105) = (   0.3000000  -0.1000000   0.1891354), wk =   0.0133333
        k(  106) = (   0.3000000  -0.1000000  -0.0717410), wk =   0.0133333
        k(  107) = (   0.4000000   0.0000000   0.1173944), wk =   0.0133333
        k(  108) = (   0.4000000   0.0000000   0.2478326), wk =   0.0133333
        k(  109) = (   0.4000000   0.0000000  -0.0130438), wk =   0.0133333
        k(  110) = (   0.4000000   0.1000000   0.1467430), wk =   0.0133333
        k(  111) = (   0.4000000   0.1000000   0.2771812), wk =   0.0133333
        k(  112) = (   0.4000000   0.1000000   0.0163048), wk =   0.0133333
        k(  113) = (   0.4000000   0.2000000   0.1760916), wk =   0.0133333
        k(  114) = (   0.4000000   0.2000000   0.3065298), wk =   0.0133333
        k(  115) = (   0.4000000   0.2000000   0.0456534), wk =   0.0133333
        k(  116) = (   0.4000000   0.3000000   0.2054402), wk =   0.0133333
        k(  117) = (   0.4000000   0.3000000   0.3358784), wk =   0.0133333
        k(  118) = (   0.4000000   0.3000000   0.0750020), wk =   0.0133333
        k(  119) = (   0.4000000   0.4000000   0.2347888), wk =   0.0133333
        k(  120) = (   0.4000000   0.4000000   0.3652270), wk =   0.0133333
        k(  121) = (   0.4000000   0.4000000   0.1043506), wk =   0.0133333
        k(  122) = (   0.4000000  -0.5000000  -0.0293486), wk =   0.0133333
        k(  123) = (   0.4000000  -0.5000000   0.1010896), wk =   0.0133333
        k(  124) = (   0.4000000  -0.5000000  -0.1597868), wk =   0.0133333
        k(  125) = (   0.4000000  -0.4000000   0.0000000), wk =   0.0133333
        k(  126) = (   0.4000000  -0.4000000   0.1304382), wk =   0.0133333
        k(  127) = (   0.4000000  -0.4000000  -0.1304382), wk =   0.0133333
        k(  128) = (   0.4000000  -0.3000000   0.0293486), wk =   0.0133333
        k(  129) = (   0.4000000  -0.3000000   0.1597868), wk =   0.0133333
        k(  130) = (   0.4000000  -0.3000000  -0.1010896), wk =   0.0133333
        k(  131) = (   0.4000000  -0.2000000   0.0586972), wk =   0.0133333
        k(  132) = (   0.4000000  -0.2000000   0.1891354), wk =   0.0133333
        k(  133) = (   0.4000000  -0.2000000  -0.0717410), wk =   0.0133333
        k(  134) = (   0.4000000  -0.1000000   0.0880458), wk =   0.0133333
        k(  135) = (   0.4000000  -0.1000000   0.2184840), wk =   0.0133333
        k(  136) = (   0.4000000  -0.1000000  -0.0423924), wk =   0.0133333
        k(  137) = (  -0.5000000   0.0000000  -0.1467430), wk =   0.0066667
        k(  138) = (  -0.5000000   0.0000000  -0.0163048), wk =   0.0133333
        k(  139) = (  -0.5000000   0.1000000  -0.1173944), wk =   0.0133333
        k(  140) = (  -0.5000000   0.1000000   0.0130438), wk =   0.0133333
        k(  141) = (  -0.5000000   0.1000000  -0.2478326), wk =   0.0133333
        k(  142) = (  -0.5000000   0.2000000  -0.0880458), wk =   0.0133333
        k(  143) = (  -0.5000000   0.2000000   0.0423924), wk =   0.0133333
        k(  144) = (  -0.5000000   0.2000000  -0.2184840), wk =   0.0133333
        k(  145) = (  -0.5000000   0.3000000  -0.0586972), wk =   0.0133333
        k(  146) = (  -0.5000000   0.3000000   0.0717410), wk =   0.0133333
        k(  147) = (  -0.5000000   0.3000000  -0.1891354), wk =   0.0133333
        k(  148) = (  -0.5000000   0.4000000  -0.0293486), wk =   0.0133333
        k(  149) = (  -0.5000000   0.4000000   0.1010896), wk =   0.0133333
        k(  150) = (  -0.5000000   0.4000000  -0.1597868), wk =   0.0133333
        k(  151) = (  -0.5000000  -0.5000000  -0.2934860), wk =   0.0066667
        k(  152) = (  -0.5000000  -0.5000000  -0.1630478), wk =   0.0133333

                       cryst. coord.
        k(    1) = (   0.0000000   0.0000000   0.0000000), wk =   0.0066667
        k(    2) = (   0.0000000   0.0000000   0.3333333), wk =   0.0133333
        k(    3) = (   0.0000000   0.1000000   0.0000000), wk =   0.0133333
        k(    4) = (   0.0000000   0.1000000   0.3333333), wk =   0.0133333
        k(    5) = (   0.0000000   0.1000000  -0.3333333), wk =   0.0133333
        k(    6) = (   0.0000000   0.2000000   0.0000000), wk =   0.0133333
        k(    7) = (   0.0000000   0.2000000   0.3333333), wk =   0.0133333
        k(    8) = (   0.0000000   0.2000000  -0.3333333), wk =   0.0133333
        k(    9) = (   0.0000000   0.3000000   0.0000000), wk =   0.0133333
        k(   10) = (   0.0000000   0.3000000   0.3333333), wk =   0.0133333
        k(   11) = (   0.0000000   0.3000000  -0.3333333), wk =   0.0133333
        k(   12) = (   0.0000000   0.4000000   0.0000000), wk =   0.0133333
        k(   13) = (   0.0000000   0.4000000   0.3333333), wk =   0.0133333
        k(   14) = (   0.0000000   0.4000000  -0.3333333), wk =   0.0133333
        k(   15) = (   0.0000000  -0.5000000   0.0000000), wk =   0.0066667
        k(   16) = (   0.0000000  -0.5000000   0.3333333), wk =   0.0133333
        k(   17) = (   0.1000000   0.0000000   0.0000000), wk =   0.0133333
        k(   18) = (   0.1000000   0.0000000   0.3333333), wk =   0.0133333
        k(   19) = (   0.1000000   0.0000000  -0.3333333), wk =   0.0133333
        k(   20) = (   0.1000000   0.1000000   0.0000000), wk =   0.0133333
        k(   21) = (   0.1000000   0.1000000   0.3333333), wk =   0.0133333
        k(   22) = (   0.1000000   0.1000000  -0.3333333), wk =   0.0133333
        k(   23) = (   0.1000000   0.2000000   0.0000000), wk =   0.0133333
        k(   24) = (   0.1000000   0.2000000   0.3333333), wk =   0.0133333
        k(   25) = (   0.1000000   0.2000000  -0.3333333), wk =   0.0133333
        k(   26) = (   0.1000000   0.3000000   0.0000000), wk =   0.0133333
        k(   27) = (   0.1000000   0.3000000   0.3333333), wk =   0.0133333
        k(   28) = (   0.1000000   0.3000000  -0.3333333), wk =   0.0133333
        k(   29) = (   0.1000000   0.4000000  -0.0000000), wk =   0.0133333
        k(   30) = (   0.1000000   0.4000000   0.3333333), wk =   0.0133333
        k(   31) = (   0.1000000   0.4000000  -0.3333333), wk =   0.0133333
        k(   32) = (   0.1000000  -0.5000000  -0.0000000), wk =   0.0133333
        k(   33) = (   0.1000000  -0.5000000   0.3333333), wk =   0.0133333
        k(   34) = (   0.1000000  -0.5000000  -0.3333333), wk =   0.0133333
        k(   35) = (   0.1000000  -0.4000000   0.0000000), wk =   0.0133333
        k(   36) = (   0.1000000  -0.4000000   0.3333333), wk =   0.0133333
        k(   37) = (   0.1000000  -0.4000000  -0.3333333), wk =   0.0133333
        k(   38) = (   0.1000000  -0.3000000   0.0000000), wk =   0.0133333
        k(   39) = (   0.1000000  -0.3000000   0.3333333), wk =   0.0133333
        k(   40) = (   0.1000000  -0.3000000  -0.3333333), wk =   0.0133333
        k(   41) = (   0.1000000  -0.2000000  -0.0000000), wk =   0.0133333
        k(   42) = (   0.1000000  -0.2000000   0.3333333), wk =   0.0133333
        k(   43) = (   0.1000000  -0.2000000  -0.3333333), wk =   0.0133333
        k(   44) = (   0.1000000  -0.1000000  -0.0000000), wk =   0.0133333
        k(   45) = (   0.1000000  -0.1000000   0.3333333), wk =   0.0133333
        k(   46) = (   0.1000000  -0.1000000  -0.3333333), wk =   0.0133333
        k(   47) = (   0.2000000   0.0000000   0.0000000), wk =   0.0133333
        k(   48) = (   0.2000000   0.0000000   0.3333333), wk =   0.0133333
        k(   49) = (   0.2000000   0.0000000  -0.3333333), wk =   0.0133333
        k(   50) = (   0.2000000   0.1000000   0.0000000), wk =   0.0133333
        k(   51) = (   0.2000000   0.1000000   0.3333333), wk =   0.0133333
        k(   52) = (   0.2000000   0.1000000  -0.3333333), wk =   0.0133333
        k(   53) = (   0.2000000   0.2000000   0.0000000), wk =   0.0133333
        k(   54) = (   0.2000000   0.2000000   0.3333333), wk =   0.0133333
        k(   55) = (   0.2000000   0.2000000  -0.3333333), wk =   0.0133333
        k(   56) = (   0.2000000   0.3000000   0.0000000), wk =   0.0133333
        k(   57) = (   0.2000000   0.3000000   0.3333333), wk =   0.0133333
        k(   58) = (   0.2000000   0.3000000  -0.3333333), wk =   0.0133333
        k(   59) = (   0.2000000   0.4000000   0.0000000), wk =   0.0133333
        k(   60) = (   0.2000000   0.4000000   0.3333333), wk =   0.0133333
        k(   61) = (   0.2000000   0.4000000  -0.3333333), wk =   0.0133333
        k(   62) = (   0.2000000  -0.5000000  -0.0000000), wk =   0.0133333
        k(   63) = (   0.2000000  -0.5000000   0.3333333), wk =   0.0133333
        k(   64) = (   0.2000000  -0.5000000  -0.3333333), wk =   0.0133333
        k(   65) = (   0.2000000  -0.4000000   0.0000000), wk =   0.0133333
        k(   66) = (   0.2000000  -0.4000000   0.3333333), wk =   0.0133333
        k(   67) = (   0.2000000  -0.4000000  -0.3333333), wk =   0.0133333
        k(   68) = (   0.2000000  -0.3000000  -0.0000000), wk =   0.0133333
        k(   69) = (   0.2000000  -0.3000000   0.3333333), wk =   0.0133333
        k(   70) = (   0.2000000  -0.3000000  -0.3333333), wk =   0.0133333
        k(   71) = (   0.2000000  -0.2000000  -0.0000000), wk =   0.0133333
        k(   72) = (   0.2000000  -0.2000000   0.3333333), wk =   0.0133333
        k(   73) = (   0.2000000  -0.2000000  -0.3333333), wk =   0.0133333
        k(   74) = (   0.2000000  -0.1000000  -0.0000000), wk =   0.0133333
        k(   75) = (   0.2000000  -0.1000000   0.3333333), wk =   0.0133333
        k(   76) = (   0.2000000  -0.1000000  -0.3333333), wk =   0.0133333
        k(   77) = (   0.3000000   0.0000000   0.0000000), wk =   0.0133333
        k(   78) = (   0.3000000   0.0000000   0.3333333), wk =   0.0133333
        k(   79) = (   0.3000000   0.0000000  -0.3333333), wk =   0.0133333
        k(   80) = (   0.3000000   0.1000000   0.0000000), wk =   0.0133333
        k(   81) = (   0.3000000   0.1000000   0.3333333), wk =   0.0133333
        k(   82) = (   0.3000000   0.1000000  -0.3333333), wk =   0.0133333
        k(   83) = (   0.3000000   0.2000000   0.0000000), wk =   0.0133333
        k(   84) = (   0.3000000   0.2000000   0.3333333), wk =   0.0133333
        k(   85) = (   0.3000000   0.2000000  -0.3333333), wk =   0.0133333
        k(   86) = (   0.3000000   0.3000000   0.0000000), wk =   0.0133333
        k(   87) = (   0.3000000   0.3000000   0.3333333), wk =   0.0133333
        k(   88) = (   0.3000000   0.3000000  -0.3333333), wk =   0.0133333
        k(   89) = (   0.3000000   0.4000000   0.0000000), wk =   0.0133333
        k(   90) = (   0.3000000   0.4000000   0.3333333), wk =   0.0133333
        k(   91) = (   0.3000000   0.4000000  -0.3333333), wk =   0.0133333
        k(   92) = (   0.3000000  -0.5000000   0.0000000), wk =   0.0133333
        k(   93) = (   0.3000000  -0.5000000   0.3333333), wk =   0.0133333
        k(   94) = (   0.3000000  -0.5000000  -0.3333333), wk =   0.0133333
        k(   95) = (   0.3000000  -0.4000000   0.0000000), wk =   0.0133333
        k(   96) = (   0.3000000  -0.4000000   0.3333333), wk =   0.0133333
        k(   97) = (   0.3000000  -0.4000000  -0.3333333), wk =   0.0133333
        k(   98) = (   0.3000000  -0.3000000   0.0000000), wk =   0.0133333
        k(   99) = (   0.3000000  -0.3000000   0.3333333), wk =   0.0133333
        k(  100) = (   0.3000000  -0.3000000  -0.3333333), wk =   0.0133333
        k(  101) = (   0.3000000  -0.2000000   0.0000000), wk =   0.0133333
        k(  102) = (   0.3000000  -0.2000000   0.3333333), wk =   0.0133333
        k(  103) = (   0.3000000  -0.2000000  -0.3333333), wk =   0.0133333
        k(  104) = (   0.3000000  -0.1000000   0.0000000), wk =   0.0133333
        k(  105) = (   0.3000000  -0.1000000   0.3333333), wk =   0.0133333
        k(  106) = (   0.3000000  -0.1000000  -0.3333333), wk =   0.0133333
        k(  107) = (   0.4000000   0.0000000   0.0000000), wk =   0.0133333
        k(  108) = (   0.4000000   0.0000000   0.3333333), wk =   0.0133333
        k(  109) = (   0.4000000   0.0000000  -0.3333333), wk =   0.0133333
        k(  110) = (   0.4000000   0.1000000  -0.0000000), wk =   0.0133333
        k(  111) = (   0.4000000   0.1000000   0.3333333), wk =   0.0133333
        k(  112) = (   0.4000000   0.1000000  -0.3333333), wk =   0.0133333
        k(  113) = (   0.4000000   0.2000000   0.0000000), wk =   0.0133333
        k(  114) = (   0.4000000   0.2000000   0.3333333), wk =   0.0133333
        k(  115) = (   0.4000000   0.2000000  -0.3333333), wk =   0.0133333
        k(  116) = (   0.4000000   0.3000000   0.0000000), wk =   0.0133333
        k(  117) = (   0.4000000   0.3000000   0.3333333), wk =   0.0133333
        k(  118) = (   0.4000000   0.3000000  -0.3333333), wk =   0.0133333
        k(  119) = (   0.4000000   0.4000000   0.0000000), wk =   0.0133333
        k(  120) = (   0.4000000   0.4000000   0.3333333), wk =   0.0133333
        k(  121) = (   0.4000000   0.4000000  -0.3333333), wk =   0.0133333
        k(  122) = (   0.4000000  -0.5000000  -0.0000000), wk =   0.0133333
        k(  123) = (   0.4000000  -0.5000000   0.3333333), wk =   0.0133333
        k(  124) = (   0.4000000  -0.5000000  -0.3333333), wk =   0.0133333
        k(  125) = (   0.4000000  -0.4000000   0.0000000), wk =   0.0133333
        k(  126) = (   0.4000000  -0.4000000   0.3333333), wk =   0.0133333
        k(  127) = (   0.4000000  -0.4000000  -0.3333333), wk =   0.0133333
        k(  128) = (   0.4000000  -0.3000000  -0.0000000), wk =   0.0133333
        k(  129) = (   0.4000000  -0.3000000   0.3333333), wk =   0.0133333
        k(  130) = (   0.4000000  -0.3000000  -0.3333333), wk =   0.0133333
        k(  131) = (   0.4000000  -0.2000000  -0.0000000), wk =   0.0133333
        k(  132) = (   0.4000000  -0.2000000   0.3333333), wk =   0.0133333
        k(  133) = (   0.4000000  -0.2000000  -0.3333333), wk =   0.0133333
        k(  134) = (   0.4000000  -0.1000000  -0.0000000), wk =   0.0133333
        k(  135) = (   0.4000000  -0.1000000   0.3333333), wk =   0.0133333
        k(  136) = (   0.4000000  -0.1000000  -0.3333333), wk =   0.0133333
        k(  137) = (  -0.5000000   0.0000000   0.0000000), wk =   0.0066667
        k(  138) = (  -0.5000000   0.0000000   0.3333333), wk =   0.0133333
        k(  139) = (  -0.5000000   0.1000000  -0.0000000), wk =   0.0133333
        k(  140) = (  -0.5000000   0.1000000   0.3333333), wk =   0.0133333
        k(  141) = (  -0.5000000   0.1000000  -0.3333333), wk =   0.0133333
        k(  142) = (  -0.5000000   0.2000000  -0.0000000), wk =   0.0133333
        k(  143) = (  -0.5000000   0.2000000   0.3333333), wk =   0.0133333
        k(  144) = (  -0.5000000   0.2000000  -0.3333333), wk =   0.0133333
        k(  145) = (  -0.5000000   0.3000000   0.0000000), wk =   0.0133333
        k(  146) = (  -0.5000000   0.3000000   0.3333333), wk =   0.0133333
        k(  147) = (  -0.5000000   0.3000000  -0.3333333), wk =   0.0133333
        k(  148) = (  -0.5000000   0.4000000  -0.0000000), wk =   0.0133333
        k(  149) = (  -0.5000000   0.4000000   0.3333333), wk =   0.0133333
        k(  150) = (  -0.5000000   0.4000000  -0.3333333), wk =   0.0133333
        k(  151) = (  -0.5000000  -0.5000000   0.0000000), wk =   0.0066667
        k(  152) = (  -0.5000000  -0.5000000   0.3333333), wk =   0.0133333

     Dense  grid:   504019 G-vectors     FFT dimensions: (  75,  75, 200)

     Smooth grid:   178409 G-vectors     FFT dimensions: (  54,  54, 144)

     Dynamical RAM for                 wfc:      25.50 MB

     Dynamical RAM for     wfc (w. buffer):    3902.16 MB

     Dynamical RAM for           str. fact:      15.38 MB

     Dynamical RAM for           local pot:       0.00 MB

     Dynamical RAM for          nlocal pot:      97.94 MB

     Dynamical RAM for                qrad:       2.87 MB

     Dynamical RAM for          rho,v,vnew:      48.82 MB

     Dynamical RAM for               rhoin:      16.27 MB

     Dynamical RAM for            rho*nmix:     123.05 MB

     Dynamical RAM for           G-vectors:      30.20 MB

     Dynamical RAM for          h,s,v(r/c):       1.03 MB

     Dynamical RAM for          <psi|beta>:       0.33 MB

     Dynamical RAM for                 psi:      51.01 MB

     Dynamical RAM for                hpsi:      51.01 MB

     Dynamical RAM for                spsi:      51.01 MB

     Dynamical RAM for      wfcinit/wfcrot:      76.46 MB

     Dynamical RAM for           addusdens:    1492.00 MB

     Estimated static dynamical RAM per process >       4.08 GB

     Estimated max dynamical RAM per process >       5.66 GB

     Check: negative core charge=   -0.000001

     Initial potential from superposition of free atoms

     starting charge     143.9834, renormalised to     144.0000

     negative rho (up, down):  9.878E-04 0.000E+00
     Starting wfcs are  112 randomized atomic wfcs
     Checking if some PAW data can be deallocated... 

     total cpu time spent up to now is      180.8 secs

     per-process dynamical memory:   116.8 Mb

     Self-consistent Calculation

     iteration #  1     ecut=    40.00 Ry     beta= 0.40
     Davidson diagonalization with overlap

---- Real-time Memory Report at c_bands before calling an iterative solver
          4299 MiB given to the printing process from OS
           133 MiB allocation reported by mallinfo(arena+hblkhd)
        181487 MiB available memory on the node where the printing process lives
------------------
     ethr =  1.00E-02,  avg # of iterations =  2.4

     negative rho (up, down):  5.743E-04 0.000E+00

     total cpu time spent up to now is      569.5 secs

     total energy              =   -2750.44943268 Ry
     estimated scf accuracy    <       5.62244072 Ry

     iteration #  2     ecut=    40.00 Ry     beta= 0.40
     Davidson diagonalization with overlap

---- Real-time Memory Report at c_bands before calling an iterative solver
          5811 MiB given to the printing process from OS
           204 MiB allocation reported by mallinfo(arena+hblkhd)
        181412 MiB available memory on the node where the printing process lives
------------------
     c_bands:  1 eigenvalues not converged
     c_bands:  2 eigenvalues not converged
     c_bands:  1 eigenvalues not converged
     c_bands:  1 eigenvalues not converged
     ethr =  3.90E-03,  avg # of iterations = 14.0

     negative rho (up, down):  1.102E-03 0.000E+00

     total cpu time spent up to now is     1341.3 secs

     total energy              =   -2742.42643135 Ry
     estimated scf accuracy    <     227.62678359 Ry

     iteration #  3     ecut=    40.00 Ry     beta= 0.40
     Davidson diagonalization with overlap

---- Real-time Memory Report at c_bands before calling an iterative solver
          5818 MiB given to the printing process from OS
           210 MiB allocation reported by mallinfo(arena+hblkhd)
        181405 MiB available memory on the node where the printing process lives
------------------
     ethr =  3.90E-03,  avg # of iterations = 10.9

     negative rho (up, down):  6.264E-04 0.000E+00

     total cpu time spent up to now is     2021.8 secs

     total energy              =   -2752.64242446 Ry
     estimated scf accuracy    <       2.50462811 Ry

     iteration #  4     ecut=    40.00 Ry     beta= 0.40
     Davidson diagonalization with overlap

---- Real-time Memory Report at c_bands before calling an iterative solver
          5823 MiB given to the printing process from OS
           215 MiB allocation reported by mallinfo(arena+hblkhd)
        181395 MiB available memory on the node where the printing process lives
------------------
     ethr =  1.74E-03,  avg # of iterations =  2.7

     negative rho (up, down):  5.090E-04 0.000E+00

     total cpu time spent up to now is     2384.7 secs

     total energy              =   -2752.70602340 Ry
     estimated scf accuracy    <       0.75875348 Ry

     iteration #  5     ecut=    40.00 Ry     beta= 0.40
     Davidson diagonalization with overlap

---- Real-time Memory Report at c_bands before calling an iterative solver
          5829 MiB given to the printing process from OS
           221 MiB allocation reported by mallinfo(arena+hblkhd)
        181390 MiB available memory on the node where the printing process lives
------------------
     ethr =  5.27E-04,  avg # of iterations =  6.7

     negative rho (up, down):  5.253E-04 0.000E+00

     total cpu time spent up to now is     2806.0 secs

     total energy              =   -2752.76395883 Ry
     estimated scf accuracy    <       0.17582442 Ry

     iteration #  6     ecut=    40.00 Ry     beta= 0.40
     Davidson diagonalization with overlap

---- Real-time Memory Report at c_bands before calling an iterative solver
          5834 MiB given to the printing process from OS
           226 MiB allocation reported by mallinfo(arena+hblkhd)
        181384 MiB available memory on the node where the printing process lives
------------------
     ethr =  1.22E-04,  avg # of iterations =  9.1

     negative rho (up, down):  5.545E-04 0.000E+00

     total cpu time spent up to now is     3302.7 secs

     total energy              =   -2752.79750971 Ry
     estimated scf accuracy    <       0.05476785 Ry

     iteration #  7     ecut=    40.00 Ry     beta= 0.40
     Davidson diagonalization with overlap

---- Real-time Memory Report at c_bands before calling an iterative solver
          5840 MiB given to the printing process from OS
           232 MiB allocation reported by mallinfo(arena+hblkhd)
        181377 MiB available memory on the node where the printing process lives
------------------
     ethr =  3.80E-05,  avg # of iterations =  8.7

     negative rho (up, down):  6.056E-04 0.000E+00

     total cpu time spent up to now is     3784.0 secs

     total energy              =   -2752.79990737 Ry
     estimated scf accuracy    <       0.10392553 Ry

     iteration #  8     ecut=    40.00 Ry     beta= 0.40
     Davidson diagonalization with overlap

---- Real-time Memory Report at c_bands before calling an iterative solver
          5845 MiB given to the printing process from OS
           237 MiB allocation reported by mallinfo(arena+hblkhd)
        181370 MiB available memory on the node where the printing process lives
------------------
     ethr =  3.80E-05,  avg # of iterations =  5.3

     negative rho (up, down):  6.259E-04 0.000E+00

     total cpu time spent up to now is     4178.7 secs

     total energy              =   -2752.80585002 Ry
     estimated scf accuracy    <       0.00524465 Ry

     iteration #  9     ecut=    40.00 Ry     beta= 0.40
     Davidson diagonalization with overlap

---- Real-time Memory Report at c_bands before calling an iterative solver
          5851 MiB given to the printing process from OS
           243 MiB allocation reported by mallinfo(arena+hblkhd)
        181365 MiB available memory on the node where the printing process lives
------------------
     c_bands:  1 eigenvalues not converged
     c_bands:  1 eigenvalues not converged
     c_bands:  1 eigenvalues not converged
     c_bands:  1 eigenvalues not converged
     c_bands:  1 eigenvalues not converged
     c_bands:  1 eigenvalues not converged
     c_bands:  1 eigenvalues not converged
     c_bands:  1 eigenvalues not converged
     c_bands:  1 eigenvalues not converged
     c_bands:  1 eigenvalues not converged
     c_bands:  1 eigenvalues not converged
     c_bands:  1 eigenvalues not converged
     c_bands:  1 eigenvalues not converged
     ethr =  3.64E-06,  avg # of iterations = 10.8

     negative rho (up, down):  6.414E-04 0.000E+00

     total cpu time spent up to now is     4749.7 secs

     total energy              =   -2752.80661654 Ry
     estimated scf accuracy    <       0.01516180 Ry

     iteration # 10     ecut=    40.00 Ry     beta= 0.40
     Davidson diagonalization with overlap

---- Real-time Memory Report at c_bands before calling an iterative solver
          5856 MiB given to the printing process from OS
           248 MiB allocation reported by mallinfo(arena+hblkhd)
        173214 MiB available memory on the node where the printing process lives
------------------
     ethr =  3.64E-06,  avg # of iterations =  7.8

     negative rho (up, down):  6.732E-04 0.000E+00

     total cpu time spent up to now is     5203.7 secs

     total energy              =   -2752.80721965 Ry
     estimated scf accuracy    <       0.00467116 Ry

     iteration # 11     ecut=    40.00 Ry     beta= 0.40
     Davidson diagonalization with overlap

---- Real-time Memory Report at c_bands before calling an iterative solver
          5856 MiB given to the printing process from OS
           248 MiB allocation reported by mallinfo(arena+hblkhd)
        172422 MiB available memory on the node where the printing process lives
------------------
     ethr =  3.24E-06,  avg # of iterations =  2.2

     negative rho (up, down):  6.854E-04 0.000E+00

     total cpu time spent up to now is     5568.7 secs

     total energy              =   -2752.80747028 Ry
     estimated scf accuracy    <       0.00064940 Ry

     iteration # 12     ecut=    40.00 Ry     beta= 0.40
     Davidson diagonalization with overlap

---- Real-time Memory Report at c_bands before calling an iterative solver
          5856 MiB given to the printing process from OS
           248 MiB allocation reported by mallinfo(arena+hblkhd)
        172016 MiB available memory on the node where the printing process lives
------------------
     c_bands:  1 eigenvalues not converged
     c_bands:  1 eigenvalues not converged
     c_bands:  1 eigenvalues not converged
     c_bands:  1 eigenvalues not converged
     ethr =  4.51E-07,  avg # of iterations =  8.9

     negative rho (up, down):  6.935E-04 0.000E+00

     total cpu time spent up to now is     6100.7 secs

     total energy              =   -2752.80757911 Ry
     estimated scf accuracy    <       0.00100371 Ry

     iteration # 13     ecut=    40.00 Ry     beta= 0.40
     Davidson diagonalization with overlap

---- Real-time Memory Report at c_bands before calling an iterative solver
          5856 MiB given to the printing process from OS
           248 MiB allocation reported by mallinfo(arena+hblkhd)
        176825 MiB available memory on the node where the printing process lives
------------------
     ethr =  4.51E-07,  avg # of iterations =  2.2

     negative rho (up, down):  6.970E-04 0.000E+00

     total cpu time spent up to now is     6465.6 secs

     total energy              =   -2752.80758245 Ry
     estimated scf accuracy    <       0.00035149 Ry

     iteration # 14     ecut=    40.00 Ry     beta= 0.40
     Davidson diagonalization with overlap

---- Real-time Memory Report at c_bands before calling an iterative solver
          5856 MiB given to the printing process from OS
           248 MiB allocation reported by mallinfo(arena+hblkhd)
        172684 MiB available memory on the node where the printing process lives
------------------
     ethr =  2.44E-07,  avg # of iterations =  3.0

     negative rho (up, down):  7.015E-04 0.000E+00

     total cpu time spent up to now is     6830.8 secs

     total energy              =   -2752.80758926 Ry
     estimated scf accuracy    <       0.00009250 Ry

     iteration # 15     ecut=    40.00 Ry     beta= 0.40
     Davidson diagonalization with overlap

---- Real-time Memory Report at c_bands before calling an iterative solver
          5856 MiB given to the printing process from OS
           248 MiB allocation reported by mallinfo(arena+hblkhd)
        171421 MiB available memory on the node where the printing process lives
------------------
     c_bands:  1 eigenvalues not converged
     c_bands:  1 eigenvalues not converged
     ethr =  6.42E-08,  avg # of iterations =  9.4

     negative rho (up, down):  7.016E-04 0.000E+00

     total cpu time spent up to now is     7386.3 secs

     total energy              =   -2752.80762298 Ry
     estimated scf accuracy    <       0.00015790 Ry

     iteration # 16     ecut=    40.00 Ry     beta= 0.40
     Davidson diagonalization with overlap

---- Real-time Memory Report at c_bands before calling an iterative solver
          5856 MiB given to the printing process from OS
           248 MiB allocation reported by mallinfo(arena+hblkhd)
        170814 MiB available memory on the node where the printing process lives
------------------
     ethr =  6.42E-08,  avg # of iterations =  1.0

     negative rho (up, down):  7.031E-04 0.000E+00

     total cpu time spent up to now is     7709.6 secs

     total energy              =   -2752.80761823 Ry
     estimated scf accuracy    <       0.00008516 Ry

     iteration # 17     ecut=    40.00 Ry     beta= 0.40
     Davidson diagonalization with overlap

---- Real-time Memory Report at c_bands before calling an iterative solver
          5856 MiB given to the printing process from OS
           248 MiB allocation reported by mallinfo(arena+hblkhd)
        176248 MiB available memory on the node where the printing process lives
------------------
     ethr =  5.91E-08,  avg # of iterations =  1.2

     negative rho (up, down):  7.055E-04 0.000E+00

     total cpu time spent up to now is     8038.1 secs

     total energy              =   -2752.80761348 Ry
     estimated scf accuracy    <       0.00003954 Ry

     iteration # 18     ecut=    40.00 Ry     beta= 0.40
     Davidson diagonalization with overlap

---- Real-time Memory Report at c_bands before calling an iterative solver
          5856 MiB given to the printing process from OS
           248 MiB allocation reported by mallinfo(arena+hblkhd)
        175016 MiB available memory on the node where the printing process lives
------------------
     c_bands:  1 eigenvalues not converged
     c_bands:  2 eigenvalues not converged
     ethr =  2.75E-08,  avg # of iterations =  7.3

     negative rho (up, down):  7.036E-04 0.000E+00

     total cpu time spent up to now is     8533.9 secs

     total energy              =   -2752.80761983 Ry
     estimated scf accuracy    <       0.00003618 Ry

     iteration # 19     ecut=    40.00 Ry     beta= 0.40
     Davidson diagonalization with overlap

---- Real-time Memory Report at c_bands before calling an iterative solver
          5856 MiB given to the printing process from OS
           248 MiB allocation reported by mallinfo(arena+hblkhd)
        170873 MiB available memory on the node where the printing process lives
------------------
     ethr =  2.51E-08,  avg # of iterations =  2.0

     negative rho (up, down):  7.043E-04 0.000E+00

     total cpu time spent up to now is     8884.0 secs

     total energy              =   -2752.80762111 Ry
     estimated scf accuracy    <       0.00000652 Ry

     iteration # 20     ecut=    40.00 Ry     beta= 0.40
     Davidson diagonalization with overlap

---- Real-time Memory Report at c_bands before calling an iterative solver
          5856 MiB given to the printing process from OS
           248 MiB allocation reported by mallinfo(arena+hblkhd)
        170836 MiB available memory on the node where the printing process lives
------------------
     ethr =  4.53E-09,  avg # of iterations =  7.4

     negative rho (up, down):  7.049E-04 0.000E+00

     total cpu time spent up to now is     9319.3 secs

     total energy              =   -2752.80762182 Ry
     estimated scf accuracy    <       0.00000197 Ry

     iteration # 21     ecut=    40.00 Ry     beta= 0.40
     Davidson diagonalization with overlap

---- Real-time Memory Report at c_bands before calling an iterative solver
          5856 MiB given to the printing process from OS
           248 MiB allocation reported by mallinfo(arena+hblkhd)
        170804 MiB available memory on the node where the printing process lives
------------------
     c_bands:  1 eigenvalues not converged
     c_bands:  1 eigenvalues not converged
     c_bands:  1 eigenvalues not converged
     c_bands:  1 eigenvalues not converged
     c_bands:  3 eigenvalues not converged
     ethr =  1.37E-09,  avg # of iterations =  4.6

     negative rho (up, down):  7.051E-04 0.000E+00

     total cpu time spent up to now is     9712.7 secs

     total energy              =   -2752.80762228 Ry
     estimated scf accuracy    <       0.00002228 Ry

     iteration # 22     ecut=    40.00 Ry     beta= 0.40
     Davidson diagonalization with overlap

---- Real-time Memory Report at c_bands before calling an iterative solver
          5856 MiB given to the printing process from OS
           248 MiB allocation reported by mallinfo(arena+hblkhd)
        175085 MiB available memory on the node where the printing process lives
------------------
     ethr =  1.37E-09,  avg # of iterations =  2.0

     negative rho (up, down):  7.060E-04 0.000E+00

     total cpu time spent up to now is    10051.0 secs

     total energy              =   -2752.80762210 Ry
     estimated scf accuracy    <       0.00001888 Ry

     iteration # 23     ecut=    40.00 Ry     beta= 0.40
     Davidson diagonalization with overlap

---- Real-time Memory Report at c_bands before calling an iterative solver
          5856 MiB given to the printing process from OS
           248 MiB allocation reported by mallinfo(arena+hblkhd)
        170916 MiB available memory on the node where the printing process lives
------------------
     ethr =  1.37E-09,  avg # of iterations =  2.6

     negative rho (up, down):  7.069E-04 0.000E+00

     total cpu time spent up to now is    10412.4 secs

     total energy              =   -2752.80762142 Ry
     estimated scf accuracy    <       0.00001583 Ry

     iteration # 24     ecut=    40.00 Ry     beta= 0.40
     Davidson diagonalization with overlap

---- Real-time Memory Report at c_bands before calling an iterative solver
          5856 MiB given to the printing process from OS
           248 MiB allocation reported by mallinfo(arena+hblkhd)
        170886 MiB available memory on the node where the printing process lives
------------------
     ethr =  1.37E-09,  avg # of iterations =  7.6

     negative rho (up, down):  7.073E-04 0.000E+00

     total cpu time spent up to now is    10826.4 secs

     total energy              =   -2752.80762116 Ry
     estimated scf accuracy    <       0.00000541 Ry

     iteration # 25     ecut=    40.00 Ry     beta= 0.40
     Davidson diagonalization with overlap

---- Real-time Memory Report at c_bands before calling an iterative solver
          5856 MiB given to the printing process from OS
           248 MiB allocation reported by mallinfo(arena+hblkhd)
        170841 MiB available memory on the node where the printing process lives
------------------
     c_bands:  1 eigenvalues not converged
     c_bands:  1 eigenvalues not converged
     c_bands:  3 eigenvalues not converged
     ethr =  1.37E-09,  avg # of iterations =  7.8

     negative rho (up, down):  7.073E-04 0.000E+00

     total cpu time spent up to now is    11309.5 secs

     total energy              =   -2752.80762283 Ry
     estimated scf accuracy    <       0.00001609 Ry

     iteration # 26     ecut=    40.00 Ry     beta= 0.40
     Davidson diagonalization with overlap

---- Real-time Memory Report at c_bands before calling an iterative solver
          5856 MiB given to the printing process from OS
           248 MiB allocation reported by mallinfo(arena+hblkhd)
        176118 MiB available memory on the node where the printing process lives
------------------
     c_bands:  1 eigenvalues not converged
     c_bands:  1 eigenvalues not converged
     ethr =  1.37E-09,  avg # of iterations =  1.3

     negative rho (up, down):  7.073E-04 0.000E+00

     total cpu time spent up to now is    11640.4 secs

     total energy              =   -2752.80762317 Ry
     estimated scf accuracy    <       0.00001655 Ry

     iteration # 27     ecut=    40.00 Ry     beta= 0.40
     Davidson diagonalization with overlap

---- Real-time Memory Report at c_bands before calling an iterative solver
          5856 MiB given to the printing process from OS
           248 MiB allocation reported by mallinfo(arena+hblkhd)
        172263 MiB available memory on the node where the printing process lives
------------------
     ethr =  1.37E-09,  avg # of iterations =  1.7

     negative rho (up, down):  7.073E-04 0.000E+00

     total cpu time spent up to now is    11976.4 secs

     total energy              =   -2752.80762306 Ry
     estimated scf accuracy    <       0.00002020 Ry

     iteration # 28     ecut=    40.00 Ry     beta= 0.40
     Davidson diagonalization with overlap

---- Real-time Memory Report at c_bands before calling an iterative solver
          5856 MiB given to the printing process from OS
           248 MiB allocation reported by mallinfo(arena+hblkhd)
        171014 MiB available memory on the node where the printing process lives
------------------
     ethr =  1.37E-09,  avg # of iterations =  1.0

     negative rho (up, down):  7.070E-04 0.000E+00

     total cpu time spent up to now is    12296.7 secs

     total energy              =   -2752.80762254 Ry
     estimated scf accuracy    <       0.00001933 Ry

     iteration # 29     ecut=    40.00 Ry     beta= 0.40
     Davidson diagonalization with overlap

---- Real-time Memory Report at c_bands before calling an iterative solver
          5856 MiB given to the printing process from OS
           248 MiB allocation reported by mallinfo(arena+hblkhd)
        170983 MiB available memory on the node where the printing process lives
------------------
     ethr =  1.37E-09,  avg # of iterations =  1.0

     negative rho (up, down):  7.076E-04 0.000E+00

     total cpu time spent up to now is    12625.3 secs

     total energy              =   -2752.80762268 Ry
     estimated scf accuracy    <       0.00001385 Ry

     iteration # 30     ecut=    40.00 Ry     beta= 0.40
     Davidson diagonalization with overlap

---- Real-time Memory Report at c_bands before calling an iterative solver
          5856 MiB given to the printing process from OS
           248 MiB allocation reported by mallinfo(arena+hblkhd)
        170958 MiB available memory on the node where the printing process lives
------------------
     ethr =  1.37E-09,  avg # of iterations =  1.0

     negative rho (up, down):  7.075E-04 0.000E+00

     total cpu time spent up to now is    12947.2 secs

     total energy              =   -2752.80762241 Ry
     estimated scf accuracy    <       0.00001661 Ry

     iteration # 31     ecut=    40.00 Ry     beta= 0.40
     Davidson diagonalization with overlap

---- Real-time Memory Report at c_bands before calling an iterative solver
          5856 MiB given to the printing process from OS
           248 MiB allocation reported by mallinfo(arena+hblkhd)
        170923 MiB available memory on the node where the printing process lives
------------------
     ethr =  1.37E-09,  avg # of iterations =  1.2

     negative rho (up, down):  7.074E-04 0.000E+00

     total cpu time spent up to now is    13274.2 secs

     total energy              =   -2752.80762236 Ry
     estimated scf accuracy    <       0.00001319 Ry

     iteration # 32     ecut=    40.00 Ry     beta= 0.40
     Davidson diagonalization with overlap

---- Real-time Memory Report at c_bands before calling an iterative solver
          5856 MiB given to the printing process from OS
           248 MiB allocation reported by mallinfo(arena+hblkhd)
        174864 MiB available memory on the node where the printing process lives
------------------
     ethr =  1.37E-09,  avg # of iterations =  1.0

     negative rho (up, down):  7.075E-04 0.000E+00

     total cpu time spent up to now is    13602.5 secs

     total energy              =   -2752.80762239 Ry
     estimated scf accuracy    <       0.00001212 Ry

     iteration # 33     ecut=    40.00 Ry     beta= 0.40
     Davidson diagonalization with overlap

---- Real-time Memory Report at c_bands before calling an iterative solver
          5856 MiB given to the printing process from OS
           248 MiB allocation reported by mallinfo(arena+hblkhd)
        172143 MiB available memory on the node where the printing process lives
------------------
     ethr =  1.37E-09,  avg # of iterations =  1.0

     negative rho (up, down):  7.065E-04 0.000E+00

     total cpu time spent up to now is    13923.7 secs

     total energy              =   -2752.80762034 Ry
     estimated scf accuracy    <       0.00001184 Ry

     iteration # 34     ecut=    40.00 Ry     beta= 0.40
     Davidson diagonalization with overlap

---- Real-time Memory Report at c_bands before calling an iterative solver
          5856 MiB given to the printing process from OS
           248 MiB allocation reported by mallinfo(arena+hblkhd)
        170883 MiB available memory on the node where the printing process lives
------------------
     c_bands:  1 eigenvalues not converged
     c_bands:  1 eigenvalues not converged
     c_bands:  1 eigenvalues not converged
     c_bands:  1 eigenvalues not converged
     c_bands:  1 eigenvalues not converged
     c_bands:  1 eigenvalues not converged
     c_bands:  1 eigenvalues not converged
     c_bands:  1 eigenvalues not converged
     c_bands:  2 eigenvalues not converged
     ethr =  1.37E-09,  avg # of iterations = 11.6

     negative rho (up, down):  7.072E-04 0.000E+00

     total cpu time spent up to now is    14495.1 secs

     total energy              =   -2752.80762110 Ry
     estimated scf accuracy    <       0.00001273 Ry

     iteration # 35     ecut=    40.00 Ry     beta= 0.40
     Davidson diagonalization with overlap

---- Real-time Memory Report at c_bands before calling an iterative solver
          5856 MiB given to the printing process from OS
           248 MiB allocation reported by mallinfo(arena+hblkhd)
        170837 MiB available memory on the node where the printing process lives
------------------
     c_bands:  1 eigenvalues not converged
     ethr =  1.37E-09,  avg # of iterations =  7.5

     negative rho (up, down):  7.073E-04 0.000E+00

     total cpu time spent up to now is    14979.4 secs

     total energy              =   -2752.80762174 Ry
     estimated scf accuracy    <       0.00000101 Ry

     iteration # 36     ecut=    40.00 Ry     beta= 0.40
     Davidson diagonalization with overlap

---- Real-time Memory Report at c_bands before calling an iterative solver
          5856 MiB given to the printing process from OS
           248 MiB allocation reported by mallinfo(arena+hblkhd)
        172198 MiB available memory on the node where the printing process lives
------------------
     c_bands:  1 eigenvalues not converged
     c_bands:  1 eigenvalues not converged
     c_bands:  2 eigenvalues not converged
     ethr =  7.02E-10,  avg # of iterations =  3.2

     negative rho (up, down):  7.072E-04 0.000E+00

     total cpu time spent up to now is    15350.5 secs

     total energy              =   -2752.80762206 Ry
     estimated scf accuracy    <       0.00000371 Ry

     iteration # 37     ecut=    40.00 Ry     beta= 0.40
     Davidson diagonalization with overlap

---- Real-time Memory Report at c_bands before calling an iterative solver
          5856 MiB given to the printing process from OS
           248 MiB allocation reported by mallinfo(arena+hblkhd)
        170885 MiB available memory on the node where the printing process lives
------------------
     c_bands:  1 eigenvalues not converged
     ethr =  7.02E-10,  avg # of iterations =  1.3

     negative rho (up, down):  7.071E-04 0.000E+00

     total cpu time spent up to now is    15681.8 secs

     total energy              =   -2752.80762219 Ry
     estimated scf accuracy    <       0.00000318 Ry

     iteration # 38     ecut=    40.00 Ry     beta= 0.40
     Davidson diagonalization with overlap

---- Real-time Memory Report at c_bands before calling an iterative solver
          5856 MiB given to the printing process from OS
           248 MiB allocation reported by mallinfo(arena+hblkhd)
        170862 MiB available memory on the node where the printing process lives
------------------
     c_bands:  1 eigenvalues not converged
     c_bands:  1 eigenvalues not converged
     c_bands:  1 eigenvalues not converged
     ethr =  7.02E-10,  avg # of iterations =  1.6

     negative rho (up, down):  7.072E-04 0.000E+00

     total cpu time spent up to now is    16010.2 secs

     total energy              =   -2752.80762200 Ry
     estimated scf accuracy    <       0.00000238 Ry

     iteration # 39     ecut=    40.00 Ry     beta= 0.40
     Davidson diagonalization with overlap

---- Real-time Memory Report at c_bands before calling an iterative solver
          5856 MiB given to the printing process from OS
           248 MiB allocation reported by mallinfo(arena+hblkhd)
        170820 MiB available memory on the node where the printing process lives
------------------
     c_bands:  1 eigenvalues not converged
     c_bands:  1 eigenvalues not converged
     ethr =  7.02E-10,  avg # of iterations =  2.4

     negative rho (up, down):  7.072E-04 0.000E+00

     total cpu time spent up to now is    16355.9 secs

     total energy              =   -2752.80762183 Ry
     estimated scf accuracy    <       0.00000153 Ry

     iteration # 40     ecut=    40.00 Ry     beta= 0.40
     Davidson diagonalization with overlap

---- Real-time Memory Report at c_bands before calling an iterative solver
          5856 MiB given to the printing process from OS
           248 MiB allocation reported by mallinfo(arena+hblkhd)
        174444 MiB available memory on the node where the printing process lives
------------------
     c_bands:  1 eigenvalues not converged
     c_bands:  1 eigenvalues not converged
     c_bands:  1 eigenvalues not converged
     c_bands:  1 eigenvalues not converged
     ethr =  7.02E-10,  avg # of iterations =  4.7

     negative rho (up, down):  7.072E-04 0.000E+00

     total cpu time spent up to now is    16726.0 secs

     total energy              =   -2752.80762170 Ry
     estimated scf accuracy    <       0.00000069 Ry

     iteration # 41     ecut=    40.00 Ry     beta= 0.40
     Davidson diagonalization with overlap

---- Real-time Memory Report at c_bands before calling an iterative solver
          5856 MiB given to the printing process from OS
           248 MiB allocation reported by mallinfo(arena+hblkhd)
        174971 MiB available memory on the node where the printing process lives
------------------
     c_bands:  2 eigenvalues not converged
     c_bands:  1 eigenvalues not converged
     c_bands:  1 eigenvalues not converged
     c_bands:  1 eigenvalues not converged
     c_bands:  1 eigenvalues not converged
     c_bands:  1 eigenvalues not converged
     c_bands:  2 eigenvalues not converged
     ethr =  4.82E-10,  avg # of iterations =  9.1

     negative rho (up, down):  7.073E-04 0.000E+00

     total cpu time spent up to now is    17160.5 secs

     total energy              =   -2752.80762230 Ry
     estimated scf accuracy    <       0.00000400 Ry

     iteration # 42     ecut=    40.00 Ry     beta= 0.40
     Davidson diagonalization with overlap

---- Real-time Memory Report at c_bands before calling an iterative solver
          5856 MiB given to the printing process from OS
           248 MiB allocation reported by mallinfo(arena+hblkhd)
        170848 MiB available memory on the node where the printing process lives
------------------
     c_bands:  1 eigenvalues not converged
     c_bands:  1 eigenvalues not converged
     c_bands:  1 eigenvalues not converged
     c_bands:  1 eigenvalues not converged
     c_bands:  1 eigenvalues not converged
     ethr =  4.82E-10,  avg # of iterations =  1.9

     negative rho (up, down):  7.074E-04 0.000E+00

     total cpu time spent up to now is    17489.3 secs

     total energy              =   -2752.80762206 Ry
     estimated scf accuracy    <       0.00000307 Ry

     iteration # 43     ecut=    40.00 Ry     beta= 0.40
     Davidson diagonalization with overlap

---- Real-time Memory Report at c_bands before calling an iterative solver
          5856 MiB given to the printing process from OS
           248 MiB allocation reported by mallinfo(arena+hblkhd)
        170766 MiB available memory on the node where the printing process lives
------------------
     c_bands:  1 eigenvalues not converged
     c_bands:  1 eigenvalues not converged
     c_bands:  1 eigenvalues not converged
     ethr =  4.82E-10,  avg # of iterations =  3.2

     negative rho (up, down):  7.073E-04 0.000E+00

     total cpu time spent up to now is    17853.3 secs

     total energy              =   -2752.80762195 Ry
     estimated scf accuracy    <       0.00000166 Ry

     iteration # 44     ecut=    40.00 Ry     beta= 0.40
     Davidson diagonalization with overlap

---- Real-time Memory Report at c_bands before calling an iterative solver
          5856 MiB given to the printing process from OS
           248 MiB allocation reported by mallinfo(arena+hblkhd)
        170656 MiB available memory on the node where the printing process lives
------------------
     c_bands:  1 eigenvalues not converged
     ethr =  4.82E-10,  avg # of iterations =  2.1

     negative rho (up, down):  7.073E-04 0.000E+00

     total cpu time spent up to now is    18191.8 secs

     total energy              =   -2752.80762195 Ry
     estimated scf accuracy    <       0.00000101 Ry

     iteration # 45     ecut=    40.00 Ry     beta= 0.40
     Davidson diagonalization with overlap

---- Real-time Memory Report at c_bands before calling an iterative solver
          5856 MiB given to the printing process from OS
           248 MiB allocation reported by mallinfo(arena+hblkhd)
        174153 MiB available memory on the node where the printing process lives
------------------
     c_bands:  1 eigenvalues not converged
     ethr =  4.82E-10,  avg # of iterations =  1.1

     negative rho (up, down):  7.074E-04 0.000E+00

     total cpu time spent up to now is    18513.6 secs

     total energy              =   -2752.80762184 Ry
     estimated scf accuracy    <       0.00000090 Ry

     iteration # 46     ecut=    40.00 Ry     beta= 0.40
     Davidson diagonalization with overlap

---- Real-time Memory Report at c_bands before calling an iterative solver
          5856 MiB given to the printing process from OS
           248 MiB allocation reported by mallinfo(arena+hblkhd)
        174773 MiB available memory on the node where the printing process lives
------------------
     c_bands:  1 eigenvalues not converged
     c_bands:  1 eigenvalues not converged
     c_bands:  1 eigenvalues not converged
     c_bands:  1 eigenvalues not converged
     c_bands:  1 eigenvalues not converged
     ethr =  4.82E-10,  avg # of iterations =  3.5

     negative rho (up, down):  7.074E-04 0.000E+00

     total cpu time spent up to now is    18872.4 secs

     total energy              =   -2752.80762180 Ry
     estimated scf accuracy    <       0.00000041 Ry

     iteration # 47     ecut=    40.00 Ry     beta= 0.40
     Davidson diagonalization with overlap

---- Real-time Memory Report at c_bands before calling an iterative solver
          5856 MiB given to the printing process from OS
           248 MiB allocation reported by mallinfo(arena+hblkhd)
        170661 MiB available memory on the node where the printing process lives
------------------
     c_bands:  1 eigenvalues not converged
     c_bands:  1 eigenvalues not converged
     c_bands:  1 eigenvalues not converged
     c_bands:  1 eigenvalues not converged
     ethr =  2.85E-10,  avg # of iterations =  7.9

     negative rho (up, down):  7.074E-04 0.000E+00

     total cpu time spent up to now is    19278.4 secs

     total energy              =   -2752.80762181 Ry
     estimated scf accuracy    <       0.00000010 Ry

     iteration # 48     ecut=    40.00 Ry     beta= 0.40
     Davidson diagonalization with overlap

---- Real-time Memory Report at c_bands before calling an iterative solver
          5856 MiB given to the printing process from OS
           248 MiB allocation reported by mallinfo(arena+hblkhd)
        170609 MiB available memory on the node where the printing process lives
------------------
     c_bands:  1 eigenvalues not converged
     c_bands:  1 eigenvalues not converged
     c_bands:  1 eigenvalues not converged
     c_bands:  1 eigenvalues not converged
     c_bands:  1 eigenvalues not converged
     c_bands:  1 eigenvalues not converged
     c_bands:  1 eigenvalues not converged
     c_bands:  1 eigenvalues not converged
     c_bands:  1 eigenvalues not converged
     c_bands:  1 eigenvalues not converged
     ethr =  6.70E-11,  avg # of iterations =  8.0

     negative rho (up, down):  7.074E-04 0.000E+00

     total cpu time spent up to now is    19706.8 secs

     total energy              =   -2752.80762251 Ry
     estimated scf accuracy    <       0.00000362 Ry

     iteration # 49     ecut=    40.00 Ry     beta= 0.40
     Davidson diagonalization with overlap

---- Real-time Memory Report at c_bands before calling an iterative solver
          5856 MiB given to the printing process from OS
           248 MiB allocation reported by mallinfo(arena+hblkhd)
        176407 MiB available memory on the node where the printing process lives
------------------
     ethr =  6.70E-11,  avg # of iterations =  1.6

     negative rho (up, down):  7.074E-04 0.000E+00

     total cpu time spent up to now is    20038.2 secs

     total energy              =   -2752.80762247 Ry
     estimated scf accuracy    <       0.00000349 Ry

     iteration # 50     ecut=    40.00 Ry     beta= 0.40
     Davidson diagonalization with overlap

---- Real-time Memory Report at c_bands before calling an iterative solver
          5856 MiB given to the printing process from OS
           248 MiB allocation reported by mallinfo(arena+hblkhd)
        174762 MiB available memory on the node where the printing process lives
------------------
     ethr =  6.70E-11,  avg # of iterations =  1.0

     negative rho (up, down):  7.074E-04 0.000E+00

     total cpu time spent up to now is    20360.5 secs

     total energy              =   -2752.80762238 Ry
     estimated scf accuracy    <       0.00000331 Ry

     iteration # 51     ecut=    40.00 Ry     beta= 0.40
     Davidson diagonalization with overlap

---- Real-time Memory Report at c_bands before calling an iterative solver
          5856 MiB given to the printing process from OS
           248 MiB allocation reported by mallinfo(arena+hblkhd)
        170696 MiB available memory on the node where the printing process lives
------------------
     c_bands:  1 eigenvalues not converged
     c_bands:  1 eigenvalues not converged
     c_bands:  1 eigenvalues not converged
     c_bands:  1 eigenvalues not converged
     ethr =  6.70E-11,  avg # of iterations =  1.7

     negative rho (up, down):  7.074E-04 0.000E+00

     total cpu time spent up to now is    20691.8 secs

     total energy              =   -2752.80762220 Ry
     estimated scf accuracy    <       0.00000283 Ry

     iteration # 52     ecut=    40.00 Ry     beta= 0.40
     Davidson diagonalization with overlap

---- Real-time Memory Report at c_bands before calling an iterative solver
          5856 MiB given to the printing process from OS
           248 MiB allocation reported by mallinfo(arena+hblkhd)
        170607 MiB available memory on the node where the printing process lives
------------------
     c_bands:  1 eigenvalues not converged
     c_bands:  1 eigenvalues not converged
     c_bands:  1 eigenvalues not converged
     c_bands:  1 eigenvalues not converged
     c_bands:  1 eigenvalues not converged
     c_bands:  1 eigenvalues not converged
     ethr =  6.70E-11,  avg # of iterations =  5.6

     negative rho (up, down):  7.074E-04 0.000E+00

     total cpu time spent up to now is    21078.9 secs

     total energy              =   -2752.80762220 Ry
     estimated scf accuracy    <       0.00000203 Ry

     iteration # 53     ecut=    40.00 Ry     beta= 0.40
     Davidson diagonalization with overlap

---- Real-time Memory Report at c_bands before calling an iterative solver
          5856 MiB given to the printing process from OS
           248 MiB allocation reported by mallinfo(arena+hblkhd)
        170568 MiB available memory on the node where the printing process lives
------------------
     ethr =  6.70E-11,  avg # of iterations =  1.3

     negative rho (up, down):  7.074E-04 0.000E+00

     total cpu time spent up to now is    21404.5 secs

     total energy              =   -2752.80762221 Ry
     estimated scf accuracy    <       0.00000198 Ry

     iteration # 54     ecut=    40.00 Ry     beta= 0.40
     Davidson diagonalization with overlap

---- Real-time Memory Report at c_bands before calling an iterative solver
          5856 MiB given to the printing process from OS
           248 MiB allocation reported by mallinfo(arena+hblkhd)
        175885 MiB available memory on the node where the printing process lives
------------------
     ethr =  6.70E-11,  avg # of iterations =  1.0

     negative rho (up, down):  7.074E-04 0.000E+00

     total cpu time spent up to now is    21729.9 secs

     total energy              =   -2752.80762222 Ry
     estimated scf accuracy    <       0.00000200 Ry

     iteration # 55     ecut=    40.00 Ry     beta= 0.40
     Davidson diagonalization with overlap

---- Real-time Memory Report at c_bands before calling an iterative solver
          5856 MiB given to the printing process from OS
           248 MiB allocation reported by mallinfo(arena+hblkhd)
        171929 MiB available memory on the node where the printing process lives
------------------
     ethr =  6.70E-11,  avg # of iterations =  1.0

     negative rho (up, down):  7.074E-04 0.000E+00

     total cpu time spent up to now is    22059.6 secs

     total energy              =   -2752.80762224 Ry
     estimated scf accuracy    <       0.00000204 Ry

     iteration # 56     ecut=    40.00 Ry     beta= 0.40
     Davidson diagonalization with overlap

---- Real-time Memory Report at c_bands before calling an iterative solver
          5856 MiB given to the printing process from OS
           248 MiB allocation reported by mallinfo(arena+hblkhd)
        170607 MiB available memory on the node where the printing process lives
------------------
     c_bands:  1 eigenvalues not converged
     ethr =  6.70E-11,  avg # of iterations =  1.4

     negative rho (up, down):  7.074E-04 0.000E+00

     total cpu time spent up to now is    22390.1 secs

     total energy              =   -2752.80762161 Ry
     estimated scf accuracy    <       0.00000213 Ry

     iteration # 57     ecut=    40.00 Ry     beta= 0.40
     Davidson diagonalization with overlap

---- Real-time Memory Report at c_bands before calling an iterative solver
          5856 MiB given to the printing process from OS
           248 MiB allocation reported by mallinfo(arena+hblkhd)
        170573 MiB available memory on the node where the printing process lives
------------------
     c_bands:  1 eigenvalues not converged
     c_bands:  2 eigenvalues not converged
     c_bands:  2 eigenvalues not converged
     c_bands:  2 eigenvalues not converged
     c_bands:  3 eigenvalues not converged
     c_bands:  3 eigenvalues not converged
     c_bands:  3 eigenvalues not converged
     c_bands:  1 eigenvalues not converged
     c_bands:  1 eigenvalues not converged
     c_bands:  1 eigenvalues not converged
     c_bands:  2 eigenvalues not converged
     c_bands:  3 eigenvalues not converged
     c_bands:  3 eigenvalues not converged
     c_bands:  2 eigenvalues not converged
     c_bands:  2 eigenvalues not converged
     c_bands:  2 eigenvalues not converged
     c_bands:  1 eigenvalues not converged
     c_bands:  1 eigenvalues not converged
     c_bands:  1 eigenvalues not converged
     c_bands:  1 eigenvalues not converged
     c_bands:  3 eigenvalues not converged
     c_bands:  3 eigenvalues not converged
     c_bands:  3 eigenvalues not converged
     c_bands:  5 eigenvalues not converged
     ethr =  6.70E-11,  avg # of iterations = 14.8

     negative rho (up, down):  7.074E-04 0.000E+00

     total cpu time spent up to now is    23132.9 secs

     total energy              =   -2752.80762188 Ry
     estimated scf accuracy    <       0.00000418 Ry

     iteration # 58     ecut=    40.00 Ry     beta= 0.40
     Davidson diagonalization with overlap

---- Real-time Memory Report at c_bands before calling an iterative solver
          5856 MiB given to the printing process from OS
           248 MiB allocation reported by mallinfo(arena+hblkhd)
        173657 MiB available memory on the node where the printing process lives
------------------
     c_bands:  1 eigenvalues not converged
     c_bands:  1 eigenvalues not converged
     c_bands:  1 eigenvalues not converged
     c_bands:  1 eigenvalues not converged
     c_bands:  1 eigenvalues not converged
     c_bands:  1 eigenvalues not converged
     c_bands:  1 eigenvalues not converged
     c_bands:  1 eigenvalues not converged
     c_bands:  1 eigenvalues not converged
     ethr =  6.70E-11,  avg # of iterations =  8.6

     negative rho (up, down):  7.074E-04 0.000E+00

     total cpu time spent up to now is    23571.8 secs

     total energy              =   -2752.80762187 Ry
     estimated scf accuracy    <       0.00000384 Ry

     iteration # 59     ecut=    40.00 Ry     beta= 0.40
     Davidson diagonalization with overlap

---- Real-time Memory Report at c_bands before calling an iterative solver
          5856 MiB given to the printing process from OS
           248 MiB allocation reported by mallinfo(arena+hblkhd)
        170795 MiB available memory on the node where the printing process lives
------------------
     c_bands:  1 eigenvalues not converged
     c_bands:  1 eigenvalues not converged
     c_bands:  1 eigenvalues not converged
     c_bands:  1 eigenvalues not converged
     ethr =  6.70E-11,  avg # of iterations =  7.9

     negative rho (up, down):  7.074E-04 0.000E+00

     total cpu time spent up to now is    24034.8 secs

     total energy              =   -2752.80762187 Ry
     estimated scf accuracy    <       0.00000195 Ry

     iteration # 60     ecut=    40.00 Ry     beta= 0.40
     Davidson diagonalization with overlap

---- Real-time Memory Report at c_bands before calling an iterative solver
          5856 MiB given to the printing process from OS
           248 MiB allocation reported by mallinfo(arena+hblkhd)
        170581 MiB available memory on the node where the printing process lives
------------------
     ethr =  6.70E-11,  avg # of iterations =  2.5

     negative rho (up, down):  7.074E-04 0.000E+00

     total cpu time spent up to now is    24391.2 secs

     total energy              =   -2752.80762170 Ry
     estimated scf accuracy    <       0.00000150 Ry

     iteration # 61     ecut=    40.00 Ry     beta= 0.40
     Davidson diagonalization with overlap

---- Real-time Memory Report at c_bands before calling an iterative solver
          5856 MiB given to the printing process from OS
           248 MiB allocation reported by mallinfo(arena+hblkhd)
        170540 MiB available memory on the node where the printing process lives
------------------
     c_bands:  1 eigenvalues not converged
     c_bands:  1 eigenvalues not converged
     c_bands:  1 eigenvalues not converged
     c_bands:  1 eigenvalues not converged
     c_bands:  1 eigenvalues not converged
     c_bands:  1 eigenvalues not converged
     c_bands:  1 eigenvalues not converged
     c_bands:  1 eigenvalues not converged
     c_bands:  2 eigenvalues not converged
     c_bands:  1 eigenvalues not converged
     c_bands:  2 eigenvalues not converged
     ethr =  6.70E-11,  avg # of iterations = 12.5

     negative rho (up, down):  7.074E-04 0.000E+00

     total cpu time spent up to now is    24985.1 secs

     total energy              =   -2752.80762181 Ry
     estimated scf accuracy    <       0.00000009 Ry

     iteration # 62     ecut=    40.00 Ry     beta= 0.40
     Davidson diagonalization with overlap

---- Real-time Memory Report at c_bands before calling an iterative solver
          5856 MiB given to the printing process from OS
           248 MiB allocation reported by mallinfo(arena+hblkhd)
        171915 MiB available memory on the node where the printing process lives
------------------
     c_bands:  1 eigenvalues not converged
     ethr =  6.19E-11,  avg # of iterations =  1.6

[...]
     1.0000   1.0000   1.0000   1.0000   1.0000   1.0000   1.0000   1.0000
     1.0000   1.0000   1.0000   1.0000   1.0000   1.0000   1.0000   1.0000
     1.0000   1.0000   1.0000   1.0000   1.0000   1.0000   1.0000   1.0000
     1.0000   1.0000   1.0000   1.0000   1.0000   1.0000   1.0000   1.0000
     1.0000   1.0000   1.0000   1.0000   1.0057   1.0057   1.0149   1.0149
     0.0004   0.0004   0.0001

          k =-0.5000 0.2000 0.0424 ( 22310 PWs)   bands (ev):

   -53.1365 -53.1358 -53.1235 -53.1229 -52.9550 -52.9550 -52.9414 -52.9414
   -29.3556 -29.3550 -29.3144 -29.3142 -29.2860 -29.2857 -29.2489 -29.2486
   -29.2244 -29.2240 -29.1790 -29.1789 -29.1661 -29.1655 -29.1158 -29.1158
   -29.0929 -29.0929 -29.0302 -29.0302 -29.0042 -29.0041 -28.9755 -28.9755
    -9.2648  -9.2647  -8.4482  -8.4482  -7.9500  -7.9500  -7.4514  -7.4514
    -3.2321  -3.2321  -2.6044  -2.6043  -2.5019  -2.5018  -2.2565  -2.2564
    -1.9508  -1.9508  -1.1149  -1.1148  -1.0213  -1.0212  -0.8032  -0.8032
    -0.7861  -0.7860  -0.0047  -0.0047   0.2743   0.2743   0.6541   0.6542
     0.7538   0.7539   1.4916   1.4917   1.6053   1.6054   1.6333   1.6333
     2.0667   2.0670   2.0975

     occupation numbers 
     1.0000   1.0000   1.0000   1.0000   1.0000   1.0000   1.0000   1.0000
     1.0000   1.0000   1.0000   1.0000   1.0000   1.0000   1.0000   1.0000
     1.0000   1.0000   1.0000   1.0000   1.0000   1.0000   1.0000   1.0000
     1.0000   1.0000   1.0000   1.0000   1.0000   1.0000   1.0000   1.0000
     1.0000   1.0000   1.0000   1.0000   1.0000   1.0000   1.0000   1.0000
     1.0000   1.0000   1.0000   1.0000   1.0000   1.0000   1.0000   1.0000
     1.0000   1.0000   1.0000   1.0000   1.0000   1.0000   1.0000   1.0000
     1.0000   1.0000   1.0000   1.0000   1.0000   1.0000   1.0000   1.0000
     1.0000   1.0000   1.0000   1.0000   1.0057   1.0057   1.0149   1.0149
     0.0004   0.0004   0.0001

          k =-0.5000 0.2000-0.2185 ( 22302 PWs)   bands (ev):

   -53.1365 -53.1358 -53.1235 -53.1229 -52.9550 -52.9550 -52.9414 -52.9414
   -29.3556 -29.3550 -29.3144 -29.3142 -29.2860 -29.2857 -29.2488 -29.2486
   -29.2244 -29.2240 -29.1790 -29.1789 -29.1661 -29.1655 -29.1158 -29.1158
   -29.0929 -29.0929 -29.0302 -29.0301 -29.0042 -29.0041 -28.9755 -28.9755
    -9.2648  -9.2647  -8.4482  -8.4482  -7.9500  -7.9500  -7.4514  -7.4514
    -3.2321  -3.2321  -2.6044  -2.6043  -2.5019  -2.5018  -2.2565  -2.2564
    -1.9508  -1.9508  -1.1149  -1.1148  -1.0213  -1.0212  -0.8032  -0.8032
    -0.7861  -0.7860  -0.0047  -0.0047   0.2743   0.2743   0.6541   0.6542
     0.7538   0.7540   1.4916   1.4917   1.6053   1.6054   1.6333   1.6333
     2.0667   2.0670   2.0972

     occupation numbers 
     1.0000   1.0000   1.0000   1.0000   1.0000   1.0000   1.0000   1.0000
     1.0000   1.0000   1.0000   1.0000   1.0000   1.0000   1.0000   1.0000
     1.0000   1.0000   1.0000   1.0000   1.0000   1.0000   1.0000   1.0000
     1.0000   1.0000   1.0000   1.0000   1.0000   1.0000   1.0000   1.0000
     1.0000   1.0000   1.0000   1.0000   1.0000   1.0000   1.0000   1.0000
     1.0000   1.0000   1.0000   1.0000   1.0000   1.0000   1.0000   1.0000
     1.0000   1.0000   1.0000   1.0000   1.0000   1.0000   1.0000   1.0000
     1.0000   1.0000   1.0000   1.0000   1.0000   1.0000   1.0000   1.0000
     1.0000   1.0000   1.0000   1.0000   1.0057   1.0057   1.0149   1.0149
     0.0004   0.0004   0.0001

          k =-0.5000 0.3000-0.0587 ( 22287 PWs)   bands (ev):

   -53.1347 -53.1341 -53.1253 -53.1246 -52.9532 -52.9531 -52.9433 -52.9432
   -29.3311 -29.3304 -29.3108 -29.3106 -29.2889 -29.2886 -29.2455 -29.2453
   -29.2278 -29.2274 -29.1920 -29.1914 -29.1517 -29.1517 -29.1127 -29.1127
   -29.0961 -29.0960 -29.0271 -29.0270 -29.0077 -29.0076 -29.0033 -29.0033
    -9.1593  -9.1593  -8.5659  -8.5658  -7.8891  -7.8890  -7.5316  -7.5316
    -3.0044  -3.0044  -2.4339  -2.4338  -2.4024  -2.4023  -2.2182  -2.2182
    -1.8145  -1.8145  -1.4838  -1.4838  -1.1377  -1.1377  -0.8765  -0.8765
    -0.8389  -0.8388  -0.3005  -0.3005   0.2605   0.2606   0.4963   0.4964
     0.8849   0.8850   1.4113   1.4115   1.5671   1.5671   1.6033   1.6033
     1.9785   1.9788   2.0356

     occupation numbers 
     1.0000   1.0000   1.0000   1.0000   1.0000   1.0000   1.0000   1.0000
     1.0000   1.0000   1.0000   1.0000   1.0000   1.0000   1.0000   1.0000
     1.0000   1.0000   1.0000   1.0000   1.0000   1.0000   1.0000   1.0000
     1.0000   1.0000   1.0000   1.0000   1.0000   1.0000   1.0000   1.0000
     1.0000   1.0000   1.0000   1.0000   1.0000   1.0000   1.0000   1.0000
     1.0000   1.0000   1.0000   1.0000   1.0000   1.0000   1.0000   1.0000
     1.0000   1.0000   1.0000   1.0000   1.0000   1.0000   1.0000   1.0000
     1.0000   1.0000   1.0000   1.0000   1.0000   1.0000   1.0000   1.0000
     1.0000   1.0000   1.0000   1.0000   1.0012   1.0012   1.0053   1.0053
     0.0236   0.0233   0.0021

          k =-0.5000 0.3000 0.0717 ( 22276 PWs)   bands (ev):

   -53.1347 -53.1341 -53.1253 -53.1246 -52.9532 -52.9531 -52.9433 -52.9432
   -29.3311 -29.3304 -29.3108 -29.3106 -29.2889 -29.2886 -29.2455 -29.2452
   -29.2278 -29.2274 -29.1920 -29.1913 -29.1517 -29.1517 -29.1127 -29.1127
   -29.0961 -29.0960 -29.0271 -29.0270 -29.0077 -29.0076 -29.0033 -29.0033
    -9.1593  -9.1593  -8.5659  -8.5658  -7.8891  -7.8890  -7.5316  -7.5316
    -3.0044  -3.0044  -2.4339  -2.4338  -2.4024  -2.4023  -2.2182  -2.2182
    -1.8145  -1.8145  -1.4838  -1.4837  -1.1377  -1.1377  -0.8765  -0.8765
    -0.8389  -0.8388  -0.3005  -0.3005   0.2605   0.2606   0.4963   0.4964
     0.8849   0.8850   1.4113   1.4115   1.5671   1.5671   1.6033   1.6034
     1.9785   1.9788   2.0356

     occupation numbers 
     1.0000   1.0000   1.0000   1.0000   1.0000   1.0000   1.0000   1.0000
     1.0000   1.0000   1.0000   1.0000   1.0000   1.0000   1.0000   1.0000
     1.0000   1.0000   1.0000   1.0000   1.0000   1.0000   1.0000   1.0000
     1.0000   1.0000   1.0000   1.0000   1.0000   1.0000   1.0000   1.0000
     1.0000   1.0000   1.0000   1.0000   1.0000   1.0000   1.0000   1.0000
     1.0000   1.0000   1.0000   1.0000   1.0000   1.0000   1.0000   1.0000
     1.0000   1.0000   1.0000   1.0000   1.0000   1.0000   1.0000   1.0000
     1.0000   1.0000   1.0000   1.0000   1.0000   1.0000   1.0000   1.0000
     1.0000   1.0000   1.0000   1.0000   1.0012   1.0012   1.0053   1.0053
     0.0236   0.0233   0.0021

          k =-0.5000 0.3000-0.1891 ( 22287 PWs)   bands (ev):

   -53.1347 -53.1341 -53.1253 -53.1246 -52.9532 -52.9531 -52.9433 -52.9432
   -29.3311 -29.3304 -29.3109 -29.3106 -29.2889 -29.2886 -29.2455 -29.2453
   -29.2278 -29.2274 -29.1920 -29.1914 -29.1517 -29.1517 -29.1127 -29.1127
   -29.0960 -29.0960 -29.0271 -29.0270 -29.0077 -29.0076 -29.0033 -29.0033
    -9.1593  -9.1593  -8.5659  -8.5658  -7.8891  -7.8890  -7.5316  -7.5316
    -3.0044  -3.0044  -2.4339  -2.4338  -2.4024  -2.4023  -2.2182  -2.2182
    -1.8145  -1.8145  -1.4838  -1.4838  -1.1377  -1.1377  -0.8765  -0.8765
    -0.8389  -0.8388  -0.3005  -0.3005   0.2605   0.2606   0.4963   0.4964
     0.8849   0.8850   1.4113   1.4115   1.5671   1.5671   1.6033   1.6034
     1.9785   1.9788   2.0356

     occupation numbers 
     1.0000   1.0000   1.0000   1.0000   1.0000   1.0000   1.0000   1.0000
     1.0000   1.0000   1.0000   1.0000   1.0000   1.0000   1.0000   1.0000
     1.0000   1.0000   1.0000   1.0000   1.0000   1.0000   1.0000   1.0000
     1.0000   1.0000   1.0000   1.0000   1.0000   1.0000   1.0000   1.0000
     1.0000   1.0000   1.0000   1.0000   1.0000   1.0000   1.0000   1.0000
     1.0000   1.0000   1.0000   1.0000   1.0000   1.0000   1.0000   1.0000
     1.0000   1.0000   1.0000   1.0000   1.0000   1.0000   1.0000   1.0000
     1.0000   1.0000   1.0000   1.0000   1.0000   1.0000   1.0000   1.0000
     1.0000   1.0000   1.0000   1.0000   1.0012   1.0012   1.0053   1.0053
     0.0236   0.0233   0.0021

          k =-0.5000 0.4000-0.0293 ( 22271 PWs)   bands (ev):

   -53.1325 -53.1318 -53.1275 -53.1269 -52.9508 -52.9508 -52.9456 -52.9456
   -29.3066 -29.3063 -29.3048 -29.3045 -29.2875 -29.2871 -29.2414 -29.2411
   -29.2320 -29.2317 -29.2243 -29.2237 -29.1172 -29.1172 -29.1088 -29.1088
   -29.0999 -29.0999 -29.0401 -29.0401 -29.0212 -29.0211 -29.0121 -29.0120
    -9.0237  -9.0237  -8.7117  -8.7117  -7.8104  -7.8104  -7.6244  -7.6244
    -2.7195  -2.7195  -2.2928  -2.2927  -2.2828  -2.2827  -2.1621  -2.1620
    -1.8395  -1.8394  -1.7575  -1.7574  -1.1983  -1.1983  -0.9485  -0.9485
    -0.8697  -0.8696  -0.6312  -0.6312   0.2795   0.2795   0.3815   0.3816
     1.0193   1.0194   1.2940   1.2942   1.5873   1.5873   1.6150   1.6150
     1.8793   1.8797   1.9322

     occupation numbers 
     1.0000   1.0000   1.0000   1.0000   1.0000   1.0000   1.0000   1.0000
     1.0000   1.0000   1.0000   1.0000   1.0000   1.0000   1.0000   1.0000
     1.0000   1.0000   1.0000   1.0000   1.0000   1.0000   1.0000   1.0000
     1.0000   1.0000   1.0000   1.0000   1.0000   1.0000   1.0000   1.0000
     1.0000   1.0000   1.0000   1.0000   1.0000   1.0000   1.0000   1.0000
     1.0000   1.0000   1.0000   1.0000   1.0000   1.0000   1.0000   1.0000
     1.0000   1.0000   1.0000   1.0000   1.0000   1.0000   1.0000   1.0000
     1.0000   1.0000   1.0000   1.0000   1.0000   1.0000   1.0000   1.0000
     1.0000   1.0000   1.0000   1.0000   1.0028   1.0028   1.0081   1.0081
     0.3531   0.3507   0.1044

          k =-0.5000 0.4000 0.1011 ( 22270 PWs)   bands (ev):

   -53.1325 -53.1318 -53.1275 -53.1269 -52.9508 -52.9508 -52.9456 -52.9456
   -29.3066 -29.3063 -29.3048 -29.3045 -29.2875 -29.2871 -29.2414 -29.2411
   -29.2320 -29.2317 -29.2243 -29.2237 -29.1172 -29.1172 -29.1088 -29.1088
   -29.0999 -29.0998 -29.0401 -29.0401 -29.0212 -29.0211 -29.0121 -29.0120
    -9.0237  -9.0237  -8.7117  -8.7117  -7.8104  -7.8104  -7.6244  -7.6244
    -2.7195  -2.7195  -2.2928  -2.2927  -2.2828  -2.2827  -2.1621  -2.1620
    -1.8395  -1.8394  -1.7575  -1.7574  -1.1983  -1.1983  -0.9485  -0.9485
    -0.8697  -0.8696  -0.6312  -0.6312   0.2795   0.2795   0.3815   0.3816
     1.0193   1.0194   1.2940   1.2942   1.5873   1.5873   1.6150   1.6150
     1.8793   1.8797   1.9326

     occupation numbers 
     1.0000   1.0000   1.0000   1.0000   1.0000   1.0000   1.0000   1.0000
     1.0000   1.0000   1.0000   1.0000   1.0000   1.0000   1.0000   1.0000
     1.0000   1.0000   1.0000   1.0000   1.0000   1.0000   1.0000   1.0000
     1.0000   1.0000   1.0000   1.0000   1.0000   1.0000   1.0000   1.0000
     1.0000   1.0000   1.0000   1.0000   1.0000   1.0000   1.0000   1.0000
     1.0000   1.0000   1.0000   1.0000   1.0000   1.0000   1.0000   1.0000
     1.0000   1.0000   1.0000   1.0000   1.0000   1.0000   1.0000   1.0000
     1.0000   1.0000   1.0000   1.0000   1.0000   1.0000   1.0000   1.0000
     1.0000   1.0000   1.0000   1.0000   1.0028   1.0028   1.0081   1.0081
     0.3531   0.3507   0.1034

          k =-0.5000 0.4000-0.1598 ( 22269 PWs)   bands (ev):

   -53.1325 -53.1318 -53.1275 -53.1269 -52.9508 -52.9508 -52.9456 -52.9456
   -29.3066 -29.3063 -29.3048 -29.3045 -29.2875 -29.2871 -29.2414 -29.2411
   -29.2320 -29.2317 -29.2243 -29.2237 -29.1172 -29.1172 -29.1088 -29.1088
   -29.0999 -29.0998 -29.0401 -29.0401 -29.0212 -29.0211 -29.0121 -29.0120
    -9.0237  -9.0237  -8.7117  -8.7117  -7.8104  -7.8104  -7.6244  -7.6244
    -2.7195  -2.7195  -2.2928  -2.2927  -2.2828  -2.2827  -2.1621  -2.1620
    -1.8395  -1.8394  -1.7575  -1.7574  -1.1983  -1.1983  -0.9485  -0.9485
    -0.8697  -0.8696  -0.6312  -0.6312   0.2795   0.2795   0.3815   0.3816
     1.0193   1.0195   1.2940   1.2942   1.5873   1.5873   1.6150   1.6150
     1.8793   1.8797   1.9322

     occupation numbers 
     1.0000   1.0000   1.0000   1.0000   1.0000   1.0000   1.0000   1.0000
     1.0000   1.0000   1.0000   1.0000   1.0000   1.0000   1.0000   1.0000
     1.0000   1.0000   1.0000   1.0000   1.0000   1.0000   1.0000   1.0000
     1.0000   1.0000   1.0000   1.0000   1.0000   1.0000   1.0000   1.0000
     1.0000   1.0000   1.0000   1.0000   1.0000   1.0000   1.0000   1.0000
     1.0000   1.0000   1.0000   1.0000   1.0000   1.0000   1.0000   1.0000
     1.0000   1.0000   1.0000   1.0000   1.0000   1.0000   1.0000   1.0000
     1.0000   1.0000   1.0000   1.0000   1.0000   1.0000   1.0000   1.0000
     1.0000   1.0000   1.0000   1.0000   1.0028   1.0028   1.0081   1.0081
     0.3531   0.3507   0.1044

          k =-0.5000-0.5000-0.2935 ( 22322 PWs)   bands (ev):

   -53.1300 -53.1300 -53.1294 -53.1293 -52.9483 -52.9482 -52.9482 -52.9482
   -29.3026 -29.3022 -29.3021 -29.3019 -29.2598 -29.2593 -29.2590 -29.2588
   -29.2367 -29.2366 -29.2366 -29.2361 -29.1046 -29.1045 -29.1045 -29.1044
   -29.0785 -29.0784 -29.0784 -29.0784 -29.0169 -29.0169 -29.0169 -29.0168
    -8.8698  -8.8697  -8.8697  -8.8696  -7.7201  -7.7200  -7.7200  -7.7199
    -2.4287  -2.4286  -2.4285  -2.4285  -2.1517  -2.1515  -2.1514  -2.1514
    -1.8994  -1.8992  -1.8992  -1.8991  -1.0577  -1.0576  -1.0576  -1.0576
    -0.8497  -0.8495  -0.8495  -0.8495   0.3151   0.3151   0.3151   0.3153
     1.1580   1.1580   1.1581   1.1581   1.6254   1.6254   1.6255   1.6255
     1.8481   1.8494   1.8495

     occupation numbers 
     1.0000   1.0000   1.0000   1.0000   1.0000   1.0000   1.0000   1.0000
     1.0000   1.0000   1.0000   1.0000   1.0000   1.0000   1.0000   1.0000
     1.0000   1.0000   1.0000   1.0000   1.0000   1.0000   1.0000   1.0000
     1.0000   1.0000   1.0000   1.0000   1.0000   1.0000   1.0000   1.0000
     1.0000   1.0000   1.0000   1.0000   1.0000   1.0000   1.0000   1.0000
     1.0000   1.0000   1.0000   1.0000   1.0000   1.0000   1.0000   1.0000
     1.0000   1.0000   1.0000   1.0000   1.0000   1.0000   1.0000   1.0000
     1.0000   1.0000   1.0000   1.0000   1.0000   1.0000   1.0000   1.0000
     1.0000   1.0000   1.0000   1.0000   1.0116   1.0116   1.0116   1.0116
     0.5762   0.5662   0.5653

          k =-0.5000-0.5000-0.1630 ( 22264 PWs)   bands (ev):

   -53.1300 -53.1300 -53.1294 -53.1293 -52.9483 -52.9482 -52.9482 -52.9482
   -29.3025 -29.3022 -29.3021 -29.3019 -29.2598 -29.2592 -29.2589 -29.2588
   -29.2367 -29.2366 -29.2366 -29.2360 -29.1045 -29.1045 -29.1045 -29.1044
   -29.0785 -29.0784 -29.0784 -29.0784 -29.0169 -29.0168 -29.0168 -29.0168
    -8.8698  -8.8697  -8.8697  -8.8696  -7.7201  -7.7200  -7.7200  -7.7199
    -2.4287  -2.4286  -2.4285  -2.4285  -2.1516  -2.1515  -2.1514  -2.1514
    -1.8994  -1.8992  -1.8991  -1.8991  -1.0577  -1.0576  -1.0576  -1.0576
    -0.8496  -0.8495  -0.8495  -0.8495   0.3151   0.3151   0.3151   0.3153
     1.1580   1.1580   1.1581   1.1581   1.6254   1.6254   1.6255   1.6255
     1.8490   1.8494   1.8495

     occupation numbers 
     1.0000   1.0000   1.0000   1.0000   1.0000   1.0000   1.0000   1.0000
     1.0000   1.0000   1.0000   1.0000   1.0000   1.0000   1.0000   1.0000
     1.0000   1.0000   1.0000   1.0000   1.0000   1.0000   1.0000   1.0000
     1.0000   1.0000   1.0000   1.0000   1.0000   1.0000   1.0000   1.0000
     1.0000   1.0000   1.0000   1.0000   1.0000   1.0000   1.0000   1.0000
     1.0000   1.0000   1.0000   1.0000   1.0000   1.0000   1.0000   1.0000
     1.0000   1.0000   1.0000   1.0000   1.0000   1.0000   1.0000   1.0000
     1.0000   1.0000   1.0000   1.0000   1.0000   1.0000   1.0000   1.0000
     1.0000   1.0000   1.0000   1.0000   1.0116   1.0116   1.0116   1.0116
     0.5692   0.5661   0.5653

     the Fermi energy is     1.8722 ev

!    total energy              =   -2752.80762178 Ry
     estimated scf accuracy    <       0.00000004 Ry
     smearing contrib. (-TS)   =      -0.00001819 Ry
     internal energy E=F+TS    =   -2752.80760359 Ry

     The total energy is F=E-TS. E is the sum of the following terms:
     one-electron contribution =   -4263.79325232 Ry
     hartree contribution      =    2146.77369710 Ry
     xc contribution           =    -264.32896535 Ry
     ewald contribution        =    1263.78741144 Ry
     one-center paw contrib.   =   -1635.24649446 Ry
      -> PAW hartree energy AE =     546.94601897 Ry
      -> PAW hartree energy PS =    -543.91125670 Ry
      -> PAW xc energy AE      =   -1853.04704222 Ry
      -> PAW xc energy PS      =     214.76578550 Ry
      -> total E_H with PAW    =    2149.80845937 Ry
      -> total E_XC with PAW   =   -1902.61022208 Ry

     convergence has been achieved in  62 iterations

     Writing all to output data dir ./out/NbP.supercell.save/
 
     init_run     :    176.93s CPU    180.62s WALL (       1 calls)
     electrons    :  24784.58s CPU  25132.66s WALL (       1 calls)

     Called by init_run:
     wfcinit      :    171.85s CPU    174.95s WALL (       1 calls)
     wfcinit:atom :      1.83s CPU      2.93s WALL (     152 calls)
     wfcinit:wfcr :    157.30s CPU    158.54s WALL (     152 calls)
     potinit      :      1.85s CPU      1.93s WALL (       1 calls)
     hinit0       :      1.40s CPU      1.43s WALL (       1 calls)

     Called by electrons:
     c_bands      :  21158.62s CPU  21440.03s WALL (      62 calls)
     sum_band     :   3471.52s CPU   3505.09s WALL (      62 calls)
     v_of_rho     :     19.69s CPU     21.15s WALL (      63 calls)
     v_h          :      1.12s CPU      1.31s WALL (      63 calls)
     v_xc         :     18.57s CPU     19.84s WALL (      63 calls)
     newd         :     82.66s CPU    114.47s WALL (      63 calls)
     PAW_pot      :     48.68s CPU     48.69s WALL (      63 calls)
     mix_rho      :      4.28s CPU      4.43s WALL (      62 calls)

     Called by c_bands:
     init_us_2    :    292.02s CPU    292.30s WALL (   19000 calls)
     init_us_2:cp :    291.94s CPU    292.26s WALL (   19000 calls)
     cegterg      :  18245.69s CPU  18520.21s WALL (    9424 calls)

     Called by sum_band:
     sum_band:wei :      0.78s CPU      0.78s WALL (      62 calls)
     sum_band:loo :   3319.51s CPU   3321.95s WALL (      62 calls)
     sum_band:buf :     38.73s CPU     39.10s WALL (    9424 calls)
     sum_band:ini :    144.58s CPU    144.66s WALL (    9424 calls)
     sum_band:cal :    455.20s CPU    455.30s WALL (    9424 calls)
     sum_band:bec :      1.00s CPU      1.00s WALL (    9424 calls)
     addusdens    :    150.00s CPU    181.11s WALL (      62 calls)
                                        0.00s GPU  (      62 calls)
     addusd:skk   :      1.32s CPU      2.62s WALL (     124 calls)
                                        0.00s GPU  (     124 calls)

     Called by *egterg:
     cdiaghg      :    216.76s CPU    217.08s WALL (   53270 calls)
     cegterg:over :   1073.01s CPU   1073.57s WALL (   43846 calls)
     cegterg:upda :    741.98s CPU    786.77s WALL (   43846 calls)
     cegterg:last :    976.66s CPU    977.03s WALL (   17499 calls)
     h_psi        :  13269.55s CPU  13366.44s WALL (   53422 calls)
     s_psi        :   1573.78s CPU   1575.02s WALL (   53422 calls)
     g_psi        :     49.97s CPU     50.06s WALL (   43846 calls)

     Called by h_psi:
     h_psi:calbec :   1351.15s CPU   1351.85s WALL (   53422 calls)
     vloc_psi     :  10272.21s CPU  10283.91s WALL (   53422 calls)
     add_vuspsi   :   1572.31s CPU   1572.81s WALL (   53422 calls)

     General routines
     calbec       :   1806.10s CPU   1806.97s WALL (   62846 calls)
     fft          :      6.22s CPU      6.24s WALL (     817 calls)
     ffts         :      0.34s CPU      0.34s WALL (     125 calls)
     fftw         :   8746.28s CPU   8753.11s WALL ( 4086568 calls)
     interpolate  :      0.98s CPU      0.99s WALL (      63 calls)
 
     Parallel routines

     PAW routines
     PAW_pot      :     48.68s CPU     48.69s WALL (      63 calls)
 
     PWSCF        :      6h56m CPU      7h 2m WALL

 
   This run was terminated on:  22:33:20  15Feb2024            

=------------------------------------------------------------------------------=
   JOB DONE.
=------------------------------------------------------------------------------=
