 
             +---------------------------------------------------+
             |                                                   |
             |                   WANNIER90                       |
             |                                                   |
             +---------------------------------------------------+
             |                                                   |
             |        Welcome to the Maximally-Localized         |
             |        Generalized Wannier Functions code         |
             |            http://www.wannier.org                 |
             |                                                   |
             |                                                   |
             |  Wannier90 Developer Group:                       |
             |    Giovanni Pizzi    (EPFL)                       |
             |    Valerio Vitale    (Cambridge)                  |
             |    David Vanderbilt  (Rutgers University)         |
             |    Nicola Marzari    (EPFL)                       |
             |    Ivo Souza         (Universidad del Pais Vasco) |
             |    Arash A. Mostofi  (Imperial College London)    |
             |    Jonathan R. Yates (University of Oxford)       |
             |                                                   |
             |  For the full list of Wannier90 3.x authors,      |
             |  please check the code documentation and the      |
             |  README on the GitHub page of the code            |
             |                                                   |
             |                                                   |
             |  Please cite                                      |
             |                                                   |
             |  [ref] "Wannier90 as a community code:            |
             |        new features and applications",            |
             |        G. Pizzi et al., J. Phys. Cond. Matt. 32,  |
             |        165902 (2020).                             |
             |        http://doi.org/10.1088/1361-648X/ab51ff    |
             |                                                   |
             |  in any publications arising from the use of      |
             |  this code. For the method please cite            |
             |                                                   |
             |  [ref] "Maximally Localized Generalised Wannier   |
             |         Functions for Composite Energy Bands"     |
             |         N. Marzari and D. Vanderbilt              |
             |         Phys. Rev. B 56 12847 (1997)              |
             |                                                   |
             |  [ref] "Maximally Localized Wannier Functions     |
             |         for Entangled Energy Bands"               |
             |         I. Souza, N. Marzari and D. Vanderbilt    |
             |         Phys. Rev. B 65 035109 (2001)             |
             |                                                   |
             |                                                   |
             | Copyright (c) 1996-2020                           |
             |        The Wannier90 Developer Group and          |
             |        individual contributors                    |
             |                                                   |
             |      Release: 3.1.0        5th March    2020      |
             |                                                   |
             | This program is free software; you can            |
             | redistribute it and/or modify it under the terms  |
             | of the GNU General Public License as published by |
             | the Free Software Foundation; either version 2 of |
             | the License, or (at your option) any later version|
             |                                                   |
             | This program is distributed in the hope that it   |
             | will be useful, but WITHOUT ANY WARRANTY; without |
             | even the implied warranty of MERCHANTABILITY or   |
             | FITNESS FOR A PARTICULAR PURPOSE. See the GNU     |
             | General Public License for more details.          |
             |                                                   |
             | You should have received a copy of the GNU General|
             | Public License along with this program; if not,   |
             | write to the Free Software Foundation, Inc.,      |
             | 675 Mass Ave, Cambridge, MA 02139, USA.           |
             |                                                   |
             +---------------------------------------------------+
             |    Execution started on 19Feb2024 at 11:44:04     |
             +---------------------------------------------------+
 
 ******************************************************************************
 * -> Using CODATA 2006 constant values                                       *
 *    (http://physics.nist.gov/cuu/Constants/index.html)                      *
 * -> Using Bohr value from CODATA                                            *
 ******************************************************************************
 

 Running in serial (with serial executable)
 
                                    ------
                                    SYSTEM
                                    ------
 
                              Lattice Vectors (Ang)
                    a_1     3.356438   0.000000   0.000000
                    a_2     0.000000   3.356438   0.000000
                    a_3    -1.678219  -1.678219   5.718225
 
                   Unit Cell Volume:      64.41967  (Ang^3)
 
                        Reciprocal-Space Vectors (Ang^-1)
                    b_1     1.871980   0.000000   0.549400
                    b_2     0.000000   1.871980   0.549400
                    b_3     0.000000   0.000000   1.098800
  
 *----------------------------------------------------------------------------*
 |   Site       Fractional Coordinate          Cartesian Coordinate (Ang)     |
 +----------------------------------------------------------------------------+
 | Nb   1   0.49992   0.49992   0.99985   |    0.00000   0.00000   5.71734    |
 | Nb   1   0.74992   0.24992   0.49985   |    1.67822   0.00000   2.85823    |
 | P    1   0.91745   0.91745   0.83489   |    1.67822   1.67822   4.77411    |
 | P    1   0.16745   0.66745   0.33489   |    0.00000   1.67822   1.91500    |
 *----------------------------------------------------------------------------*
                                -----------
                                PROJECTIONS
                                -----------
  
 +----------------------------------------------------------------------------+
 |     Frac. Coord.   l mr  r        z-axis               x-axis          Z/a |
 +----------------------------------------------------------------------------+
 |  0.75  0.25  0.50  2  1  1  0.000  0.000  1.000  1.000  0.000  0.000   1.0 |
 |  0.75  0.25  0.50  2  2  1  0.000  0.000  1.000  1.000  0.000  0.000   1.0 |
 |  0.75  0.25  0.50  2  3  1  0.000  0.000  1.000  1.000  0.000  0.000   1.0 |
 |  0.75  0.25  0.50  2  4  1  0.000  0.000  1.000  1.000  0.000  0.000   1.0 |
 |  0.75  0.25  0.50  2  5  1  0.000  0.000  1.000  1.000  0.000  0.000   1.0 |
 |  0.92  0.92  0.83  1  1  1  0.000  0.000  1.000  1.000  0.000  0.000   1.0 |
 |  0.92  0.92  0.83  1  2  1  0.000  0.000  1.000  1.000  0.000  0.000   1.0 |
 |  0.92  0.92  0.83  1  3  1  0.000  0.000  1.000  1.000  0.000  0.000   1.0 |
 +----------------------------------------------------------------------------+
  
                                ------------
                                K-POINT GRID
                                ------------
  
             Grid size = 10 x 10 x  5      Total points =  500
  
 *----------------------------------------------------------------------------*
 | k-point      Fractional Coordinate        Cartesian Coordinate (Ang^-1)    |
 +----------------------------------------------------------------------------+
 |     1    0.00000   0.00000   0.00000   |    0.00000   0.00000   0.00000    |
 |     2    0.00000   0.00000   0.20000   |    0.00000   0.00000   0.21976    |
 |     3    0.00000   0.00000   0.40000   |    0.00000   0.00000   0.43952    |
 |     4    0.00000   0.00000   0.60000   |    0.00000   0.00000   0.65928    |
 |     5    0.00000   0.00000   0.80000   |    0.00000   0.00000   0.87904    |
 |     6    0.00000   0.10000   0.00000   |    0.00000   0.18720   0.05494    |
 |     7    0.00000   0.10000   0.20000   |    0.00000   0.18720   0.27470    |
 |     8    0.00000   0.10000   0.40000   |    0.00000   0.18720   0.49446    |
 |     9    0.00000   0.10000   0.60000   |    0.00000   0.18720   0.71422    |
 |    10    0.00000   0.10000   0.80000   |    0.00000   0.18720   0.93398    |
 |    11    0.00000   0.20000   0.00000   |    0.00000   0.37440   0.10988    |
 |    12    0.00000   0.20000   0.20000   |    0.00000   0.37440   0.32964    |
 |    13    0.00000   0.20000   0.40000   |    0.00000   0.37440   0.54940    |
 |    14    0.00000   0.20000   0.60000   |    0.00000   0.37440   0.76916    |
 |    15    0.00000   0.20000   0.80000   |    0.00000   0.37440   0.98892    |
 |    16    0.00000   0.30000   0.00000   |    0.00000   0.56159   0.16482    |
 |    17    0.00000   0.30000   0.20000   |    0.00000   0.56159   0.38458    |
 |    18    0.00000   0.30000   0.40000   |    0.00000   0.56159   0.60434    |
 |    19    0.00000   0.30000   0.60000   |    0.00000   0.56159   0.82410    |
 |    20    0.00000   0.30000   0.80000   |    0.00000   0.56159   1.04386    |
 |    21    0.00000   0.40000   0.00000   |    0.00000   0.74879   0.21976    |
 |    22    0.00000   0.40000   0.20000   |    0.00000   0.74879   0.43952    |
 |    23    0.00000   0.40000   0.40000   |    0.00000   0.74879   0.65928    |
 |    24    0.00000   0.40000   0.60000   |    0.00000   0.74879   0.87904    |
 |    25    0.00000   0.40000   0.80000   |    0.00000   0.74879   1.09880    |
 |    26    0.00000   0.50000   0.00000   |    0.00000   0.93599   0.27470    |
 |    27    0.00000   0.50000   0.20000   |    0.00000   0.93599   0.49446    |
 |    28    0.00000   0.50000   0.40000   |    0.00000   0.93599   0.71422    |
 |    29    0.00000   0.50000   0.60000   |    0.00000   0.93599   0.93398    |
 |    30    0.00000   0.50000   0.80000   |    0.00000   0.93599   1.15374    |
 |    31    0.00000   0.60000   0.00000   |    0.00000   1.12319   0.32964    |
 |    32    0.00000   0.60000   0.20000   |    0.00000   1.12319   0.54940    |
 |    33    0.00000   0.60000   0.40000   |    0.00000   1.12319   0.76916    |
 |    34    0.00000   0.60000   0.60000   |    0.00000   1.12319   0.98892    |
 |    35    0.00000   0.60000   0.80000   |    0.00000   1.12319   1.20868    |
 |    36    0.00000   0.70000   0.00000   |    0.00000   1.31039   0.38458    |
 |    37    0.00000   0.70000   0.20000   |    0.00000   1.31039   0.60434    |
 |    38    0.00000   0.70000   0.40000   |    0.00000   1.31039   0.82410    |
 |    39    0.00000   0.70000   0.60000   |    0.00000   1.31039   1.04386    |
 |    40    0.00000   0.70000   0.80000   |    0.00000   1.31039   1.26362    |
 |    41    0.00000   0.80000   0.00000   |    0.00000   1.49758   0.43952    |
 |    42    0.00000   0.80000   0.20000   |    0.00000   1.49758   0.65928    |
 |    43    0.00000   0.80000   0.40000   |    0.00000   1.49758   0.87904    |
 |    44    0.00000   0.80000   0.60000   |    0.00000   1.49758   1.09880    |
 |    45    0.00000   0.80000   0.80000   |    0.00000   1.49758   1.31856    |
 |    46    0.00000   0.90000   0.00000   |    0.00000   1.68478   0.49446    |
 |    47    0.00000   0.90000   0.20000   |    0.00000   1.68478   0.71422    |
 |    48    0.00000   0.90000   0.40000   |    0.00000   1.68478   0.93398    |
 |    49    0.00000   0.90000   0.60000   |    0.00000   1.68478   1.15374    |
 |    50    0.00000   0.90000   0.80000   |    0.00000   1.68478   1.37350    |
 |    51    0.10000   0.00000   0.00000   |    0.18720   0.00000   0.05494    |
 |    52    0.10000   0.00000   0.20000   |    0.18720   0.00000   0.27470    |
 |    53    0.10000   0.00000   0.40000   |    0.18720   0.00000   0.49446    |
 |    54    0.10000   0.00000   0.60000   |    0.18720   0.00000   0.71422    |
 |    55    0.10000   0.00000   0.80000   |    0.18720   0.00000   0.93398    |
 |    56    0.10000   0.10000   0.00000   |    0.18720   0.18720   0.10988    |
 |    57    0.10000   0.10000   0.20000   |    0.18720   0.18720   0.32964    |
 |    58    0.10000   0.10000   0.40000   |    0.18720   0.18720   0.54940    |
 |    59    0.10000   0.10000   0.60000   |    0.18720   0.18720   0.76916    |
 |    60    0.10000   0.10000   0.80000   |    0.18720   0.18720   0.98892    |
 |    61    0.10000   0.20000   0.00000   |    0.18720   0.37440   0.16482    |
 |    62    0.10000   0.20000   0.20000   |    0.18720   0.37440   0.38458    |
 |    63    0.10000   0.20000   0.40000   |    0.18720   0.37440   0.60434    |
 |    64    0.10000   0.20000   0.60000   |    0.18720   0.37440   0.82410    |
 |    65    0.10000   0.20000   0.80000   |    0.18720   0.37440   1.04386    |
 |    66    0.10000   0.30000   0.00000   |    0.18720   0.56159   0.21976    |
 |    67    0.10000   0.30000   0.20000   |    0.18720   0.56159   0.43952    |
 |    68    0.10000   0.30000   0.40000   |    0.18720   0.56159   0.65928    |
 |    69    0.10000   0.30000   0.60000   |    0.18720   0.56159   0.87904    |
 |    70    0.10000   0.30000   0.80000   |    0.18720   0.56159   1.09880    |
 |    71    0.10000   0.40000   0.00000   |    0.18720   0.74879   0.27470    |
 |    72    0.10000   0.40000   0.20000   |    0.18720   0.74879   0.49446    |
 |    73    0.10000   0.40000   0.40000   |    0.18720   0.74879   0.71422    |
 |    74    0.10000   0.40000   0.60000   |    0.18720   0.74879   0.93398    |
 |    75    0.10000   0.40000   0.80000   |    0.18720   0.74879   1.15374    |
 |    76    0.10000   0.50000   0.00000   |    0.18720   0.93599   0.32964    |
 |    77    0.10000   0.50000   0.20000   |    0.18720   0.93599   0.54940    |
 |    78    0.10000   0.50000   0.40000   |    0.18720   0.93599   0.76916    |
 |    79    0.10000   0.50000   0.60000   |    0.18720   0.93599   0.98892    |
 |    80    0.10000   0.50000   0.80000   |    0.18720   0.93599   1.20868    |
 |    81    0.10000   0.60000   0.00000   |    0.18720   1.12319   0.38458    |
 |    82    0.10000   0.60000   0.20000   |    0.18720   1.12319   0.60434    |
 |    83    0.10000   0.60000   0.40000   |    0.18720   1.12319   0.82410    |
 |    84    0.10000   0.60000   0.60000   |    0.18720   1.12319   1.04386    |
 |    85    0.10000   0.60000   0.80000   |    0.18720   1.12319   1.26362    |
 |    86    0.10000   0.70000   0.00000   |    0.18720   1.31039   0.43952    |
 |    87    0.10000   0.70000   0.20000   |    0.18720   1.31039   0.65928    |
 |    88    0.10000   0.70000   0.40000   |    0.18720   1.31039   0.87904    |
 |    89    0.10000   0.70000   0.60000   |    0.18720   1.31039   1.09880    |
 |    90    0.10000   0.70000   0.80000   |    0.18720   1.31039   1.31856    |
 |    91    0.10000   0.80000   0.00000   |    0.18720   1.49758   0.49446    |
 |    92    0.10000   0.80000   0.20000   |    0.18720   1.49758   0.71422    |
 |    93    0.10000   0.80000   0.40000   |    0.18720   1.49758   0.93398    |
 |    94    0.10000   0.80000   0.60000   |    0.18720   1.49758   1.15374    |
 |    95    0.10000   0.80000   0.80000   |    0.18720   1.49758   1.37350    |
 |    96    0.10000   0.90000   0.00000   |    0.18720   1.68478   0.54940    |
 |    97    0.10000   0.90000   0.20000   |    0.18720   1.68478   0.76916    |
 |    98    0.10000   0.90000   0.40000   |    0.18720   1.68478   0.98892    |
 |    99    0.10000   0.90000   0.60000   |    0.18720   1.68478   1.20868    |
 |   100    0.10000   0.90000   0.80000   |    0.18720   1.68478   1.42844    |
 |   101    0.20000   0.00000   0.00000   |    0.37440   0.00000   0.10988    |
 |   102    0.20000   0.00000   0.20000   |    0.37440   0.00000   0.32964    |
 |   103    0.20000   0.00000   0.40000   |    0.37440   0.00000   0.54940    |
 |   104    0.20000   0.00000   0.60000   |    0.37440   0.00000   0.76916    |
 |   105    0.20000   0.00000   0.80000   |    0.37440   0.00000   0.98892    |
 |   106    0.20000   0.10000   0.00000   |    0.37440   0.18720   0.16482    |
 |   107    0.20000   0.10000   0.20000   |    0.37440   0.18720   0.38458    |
 |   108    0.20000   0.10000   0.40000   |    0.37440   0.18720   0.60434    |
 |   109    0.20000   0.10000   0.60000   |    0.37440   0.18720   0.82410    |
 |   110    0.20000   0.10000   0.80000   |    0.37440   0.18720   1.04386    |
 |   111    0.20000   0.20000   0.00000   |    0.37440   0.37440   0.21976    |
 |   112    0.20000   0.20000   0.20000   |    0.37440   0.37440   0.43952    |
 |   113    0.20000   0.20000   0.40000   |    0.37440   0.37440   0.65928    |
 |   114    0.20000   0.20000   0.60000   |    0.37440   0.37440   0.87904    |
 |   115    0.20000   0.20000   0.80000   |    0.37440   0.37440   1.09880    |
 |   116    0.20000   0.30000   0.00000   |    0.37440   0.56159   0.27470    |
 |   117    0.20000   0.30000   0.20000   |    0.37440   0.56159   0.49446    |
 |   118    0.20000   0.30000   0.40000   |    0.37440   0.56159   0.71422    |
 |   119    0.20000   0.30000   0.60000   |    0.37440   0.56159   0.93398    |
 |   120    0.20000   0.30000   0.80000   |    0.37440   0.56159   1.15374    |
 |   121    0.20000   0.40000   0.00000   |    0.37440   0.74879   0.32964    |
 |   122    0.20000   0.40000   0.20000   |    0.37440   0.74879   0.54940    |
 |   123    0.20000   0.40000   0.40000   |    0.37440   0.74879   0.76916    |
 |   124    0.20000   0.40000   0.60000   |    0.37440   0.74879   0.98892    |
 |   125    0.20000   0.40000   0.80000   |    0.37440   0.74879   1.20868    |
 |   126    0.20000   0.50000   0.00000   |    0.37440   0.93599   0.38458    |
 |   127    0.20000   0.50000   0.20000   |    0.37440   0.93599   0.60434    |
 |   128    0.20000   0.50000   0.40000   |    0.37440   0.93599   0.82410    |
 |   129    0.20000   0.50000   0.60000   |    0.37440   0.93599   1.04386    |
 |   130    0.20000   0.50000   0.80000   |    0.37440   0.93599   1.26362    |
 |   131    0.20000   0.60000   0.00000   |    0.37440   1.12319   0.43952    |
 |   132    0.20000   0.60000   0.20000   |    0.37440   1.12319   0.65928    |
 |   133    0.20000   0.60000   0.40000   |    0.37440   1.12319   0.87904    |
 |   134    0.20000   0.60000   0.60000   |    0.37440   1.12319   1.09880    |
 |   135    0.20000   0.60000   0.80000   |    0.37440   1.12319   1.31856    |
 |   136    0.20000   0.70000   0.00000   |    0.37440   1.31039   0.49446    |
 |   137    0.20000   0.70000   0.20000   |    0.37440   1.31039   0.71422    |
 |   138    0.20000   0.70000   0.40000   |    0.37440   1.31039   0.93398    |
 |   139    0.20000   0.70000   0.60000   |    0.37440   1.31039   1.15374    |
 |   140    0.20000   0.70000   0.80000   |    0.37440   1.31039   1.37350    |
 |   141    0.20000   0.80000   0.00000   |    0.37440   1.49758   0.54940    |
 |   142    0.20000   0.80000   0.20000   |    0.37440   1.49758   0.76916    |
 |   143    0.20000   0.80000   0.40000   |    0.37440   1.49758   0.98892    |
 |   144    0.20000   0.80000   0.60000   |    0.37440   1.49758   1.20868    |
 |   145    0.20000   0.80000   0.80000   |    0.37440   1.49758   1.42844    |
 |   146    0.20000   0.90000   0.00000   |    0.37440   1.68478   0.60434    |
 |   147    0.20000   0.90000   0.20000   |    0.37440   1.68478   0.82410    |
 |   148    0.20000   0.90000   0.40000   |    0.37440   1.68478   1.04386    |
 |   149    0.20000   0.90000   0.60000   |    0.37440   1.68478   1.26362    |
 |   150    0.20000   0.90000   0.80000   |    0.37440   1.68478   1.48338    |
 |   151    0.30000   0.00000   0.00000   |    0.56159   0.00000   0.16482    |
 |   152    0.30000   0.00000   0.20000   |    0.56159   0.00000   0.38458    |
 |   153    0.30000   0.00000   0.40000   |    0.56159   0.00000   0.60434    |
 |   154    0.30000   0.00000   0.60000   |    0.56159   0.00000   0.82410    |
 |   155    0.30000   0.00000   0.80000   |    0.56159   0.00000   1.04386    |
 |   156    0.30000   0.10000   0.00000   |    0.56159   0.18720   0.21976    |
 |   157    0.30000   0.10000   0.20000   |    0.56159   0.18720   0.43952    |
 |   158    0.30000   0.10000   0.40000   |    0.56159   0.18720   0.65928    |
 |   159    0.30000   0.10000   0.60000   |    0.56159   0.18720   0.87904    |
 |   160    0.30000   0.10000   0.80000   |    0.56159   0.18720   1.09880    |
 |   161    0.30000   0.20000   0.00000   |    0.56159   0.37440   0.27470    |
 |   162    0.30000   0.20000   0.20000   |    0.56159   0.37440   0.49446    |
 |   163    0.30000   0.20000   0.40000   |    0.56159   0.37440   0.71422    |
 |   164    0.30000   0.20000   0.60000   |    0.56159   0.37440   0.93398    |
 |   165    0.30000   0.20000   0.80000   |    0.56159   0.37440   1.15374    |
 |   166    0.30000   0.30000   0.00000   |    0.56159   0.56159   0.32964    |
 |   167    0.30000   0.30000   0.20000   |    0.56159   0.56159   0.54940    |
 |   168    0.30000   0.30000   0.40000   |    0.56159   0.56159   0.76916    |
 |   169    0.30000   0.30000   0.60000   |    0.56159   0.56159   0.98892    |
 |   170    0.30000   0.30000   0.80000   |    0.56159   0.56159   1.20868    |
 |   171    0.30000   0.40000   0.00000   |    0.56159   0.74879   0.38458    |
 |   172    0.30000   0.40000   0.20000   |    0.56159   0.74879   0.60434    |
 |   173    0.30000   0.40000   0.40000   |    0.56159   0.74879   0.82410    |
 |   174    0.30000   0.40000   0.60000   |    0.56159   0.74879   1.04386    |
 |   175    0.30000   0.40000   0.80000   |    0.56159   0.74879   1.26362    |
 |   176    0.30000   0.50000   0.00000   |    0.56159   0.93599   0.43952    |
 |   177    0.30000   0.50000   0.20000   |    0.56159   0.93599   0.65928    |
 |   178    0.30000   0.50000   0.40000   |    0.56159   0.93599   0.87904    |
 |   179    0.30000   0.50000   0.60000   |    0.56159   0.93599   1.09880    |
 |   180    0.30000   0.50000   0.80000   |    0.56159   0.93599   1.31856    |
 |   181    0.30000   0.60000   0.00000   |    0.56159   1.12319   0.49446    |
 |   182    0.30000   0.60000   0.20000   |    0.56159   1.12319   0.71422    |
 |   183    0.30000   0.60000   0.40000   |    0.56159   1.12319   0.93398    |
 |   184    0.30000   0.60000   0.60000   |    0.56159   1.12319   1.15374    |
 |   185    0.30000   0.60000   0.80000   |    0.56159   1.12319   1.37350    |
 |   186    0.30000   0.70000   0.00000   |    0.56159   1.31039   0.54940    |
 |   187    0.30000   0.70000   0.20000   |    0.56159   1.31039   0.76916    |
 |   188    0.30000   0.70000   0.40000   |    0.56159   1.31039   0.98892    |
 |   189    0.30000   0.70000   0.60000   |    0.56159   1.31039   1.20868    |
 |   190    0.30000   0.70000   0.80000   |    0.56159   1.31039   1.42844    |
 |   191    0.30000   0.80000   0.00000   |    0.56159   1.49758   0.60434    |
 |   192    0.30000   0.80000   0.20000   |    0.56159   1.49758   0.82410    |
 |   193    0.30000   0.80000   0.40000   |    0.56159   1.49758   1.04386    |
 |   194    0.30000   0.80000   0.60000   |    0.56159   1.49758   1.26362    |
 |   195    0.30000   0.80000   0.80000   |    0.56159   1.49758   1.48338    |
 |   196    0.30000   0.90000   0.00000   |    0.56159   1.68478   0.65928    |
 |   197    0.30000   0.90000   0.20000   |    0.56159   1.68478   0.87904    |
 |   198    0.30000   0.90000   0.40000   |    0.56159   1.68478   1.09880    |
 |   199    0.30000   0.90000   0.60000   |    0.56159   1.68478   1.31856    |
 |   200    0.30000   0.90000   0.80000   |    0.56159   1.68478   1.53832    |
 |   201    0.40000   0.00000   0.00000   |    0.74879   0.00000   0.21976    |
 |   202    0.40000   0.00000   0.20000   |    0.74879   0.00000   0.43952    |
 |   203    0.40000   0.00000   0.40000   |    0.74879   0.00000   0.65928    |
 |   204    0.40000   0.00000   0.60000   |    0.74879   0.00000   0.87904    |
 |   205    0.40000   0.00000   0.80000   |    0.74879   0.00000   1.09880    |
 |   206    0.40000   0.10000   0.00000   |    0.74879   0.18720   0.27470    |
 |   207    0.40000   0.10000   0.20000   |    0.74879   0.18720   0.49446    |
 |   208    0.40000   0.10000   0.40000   |    0.74879   0.18720   0.71422    |
 |   209    0.40000   0.10000   0.60000   |    0.74879   0.18720   0.93398    |
 |   210    0.40000   0.10000   0.80000   |    0.74879   0.18720   1.15374    |
 |   211    0.40000   0.20000   0.00000   |    0.74879   0.37440   0.32964    |
 |   212    0.40000   0.20000   0.20000   |    0.74879   0.37440   0.54940    |
 |   213    0.40000   0.20000   0.40000   |    0.74879   0.37440   0.76916    |
 |   214    0.40000   0.20000   0.60000   |    0.74879   0.37440   0.98892    |
 |   215    0.40000   0.20000   0.80000   |    0.74879   0.37440   1.20868    |
 |   216    0.40000   0.30000   0.00000   |    0.74879   0.56159   0.38458    |
 |   217    0.40000   0.30000   0.20000   |    0.74879   0.56159   0.60434    |
 |   218    0.40000   0.30000   0.40000   |    0.74879   0.56159   0.82410    |
 |   219    0.40000   0.30000   0.60000   |    0.74879   0.56159   1.04386    |
 |   220    0.40000   0.30000   0.80000   |    0.74879   0.56159   1.26362    |
 |   221    0.40000   0.40000   0.00000   |    0.74879   0.74879   0.43952    |
 |   222    0.40000   0.40000   0.20000   |    0.74879   0.74879   0.65928    |
 |   223    0.40000   0.40000   0.40000   |    0.74879   0.74879   0.87904    |
 |   224    0.40000   0.40000   0.60000   |    0.74879   0.74879   1.09880    |
 |   225    0.40000   0.40000   0.80000   |    0.74879   0.74879   1.31856    |
 |   226    0.40000   0.50000   0.00000   |    0.74879   0.93599   0.49446    |
 |   227    0.40000   0.50000   0.20000   |    0.74879   0.93599   0.71422    |
 |   228    0.40000   0.50000   0.40000   |    0.74879   0.93599   0.93398    |
 |   229    0.40000   0.50000   0.60000   |    0.74879   0.93599   1.15374    |
 |   230    0.40000   0.50000   0.80000   |    0.74879   0.93599   1.37350    |
 |   231    0.40000   0.60000   0.00000   |    0.74879   1.12319   0.54940    |
 |   232    0.40000   0.60000   0.20000   |    0.74879   1.12319   0.76916    |
 |   233    0.40000   0.60000   0.40000   |    0.74879   1.12319   0.98892    |
 |   234    0.40000   0.60000   0.60000   |    0.74879   1.12319   1.20868    |
 |   235    0.40000   0.60000   0.80000   |    0.74879   1.12319   1.42844    |
 |   236    0.40000   0.70000   0.00000   |    0.74879   1.31039   0.60434    |
 |   237    0.40000   0.70000   0.20000   |    0.74879   1.31039   0.82410    |
 |   238    0.40000   0.70000   0.40000   |    0.74879   1.31039   1.04386    |
 |   239    0.40000   0.70000   0.60000   |    0.74879   1.31039   1.26362    |
 |   240    0.40000   0.70000   0.80000   |    0.74879   1.31039   1.48338    |
 |   241    0.40000   0.80000   0.00000   |    0.74879   1.49758   0.65928    |
 |   242    0.40000   0.80000   0.20000   |    0.74879   1.49758   0.87904    |
 |   243    0.40000   0.80000   0.40000   |    0.74879   1.49758   1.09880    |
 |   244    0.40000   0.80000   0.60000   |    0.74879   1.49758   1.31856    |
 |   245    0.40000   0.80000   0.80000   |    0.74879   1.49758   1.53832    |
 |   246    0.40000   0.90000   0.00000   |    0.74879   1.68478   0.71422    |
 |   247    0.40000   0.90000   0.20000   |    0.74879   1.68478   0.93398    |
 |   248    0.40000   0.90000   0.40000   |    0.74879   1.68478   1.15374    |
 |   249    0.40000   0.90000   0.60000   |    0.74879   1.68478   1.37350    |
 |   250    0.40000   0.90000   0.80000   |    0.74879   1.68478   1.59326    |
 |   251    0.50000   0.00000   0.00000   |    0.93599   0.00000   0.27470    |
 |   252    0.50000   0.00000   0.20000   |    0.93599   0.00000   0.49446    |
 |   253    0.50000   0.00000   0.40000   |    0.93599   0.00000   0.71422    |
 |   254    0.50000   0.00000   0.60000   |    0.93599   0.00000   0.93398    |
 |   255    0.50000   0.00000   0.80000   |    0.93599   0.00000   1.15374    |
 |   256    0.50000   0.10000   0.00000   |    0.93599   0.18720   0.32964    |
 |   257    0.50000   0.10000   0.20000   |    0.93599   0.18720   0.54940    |
 |   258    0.50000   0.10000   0.40000   |    0.93599   0.18720   0.76916    |
 |   259    0.50000   0.10000   0.60000   |    0.93599   0.18720   0.98892    |
 |   260    0.50000   0.10000   0.80000   |    0.93599   0.18720   1.20868    |
 |   261    0.50000   0.20000   0.00000   |    0.93599   0.37440   0.38458    |
 |   262    0.50000   0.20000   0.20000   |    0.93599   0.37440   0.60434    |
 |   263    0.50000   0.20000   0.40000   |    0.93599   0.37440   0.82410    |
 |   264    0.50000   0.20000   0.60000   |    0.93599   0.37440   1.04386    |
 |   265    0.50000   0.20000   0.80000   |    0.93599   0.37440   1.26362    |
 |   266    0.50000   0.30000   0.00000   |    0.93599   0.56159   0.43952    |
 |   267    0.50000   0.30000   0.20000   |    0.93599   0.56159   0.65928    |
 |   268    0.50000   0.30000   0.40000   |    0.93599   0.56159   0.87904    |
 |   269    0.50000   0.30000   0.60000   |    0.93599   0.56159   1.09880    |
 |   270    0.50000   0.30000   0.80000   |    0.93599   0.56159   1.31856    |
 |   271    0.50000   0.40000   0.00000   |    0.93599   0.74879   0.49446    |
 |   272    0.50000   0.40000   0.20000   |    0.93599   0.74879   0.71422    |
 |   273    0.50000   0.40000   0.40000   |    0.93599   0.74879   0.93398    |
 |   274    0.50000   0.40000   0.60000   |    0.93599   0.74879   1.15374    |
 |   275    0.50000   0.40000   0.80000   |    0.93599   0.74879   1.37350    |
 |   276    0.50000   0.50000   0.00000   |    0.93599   0.93599   0.54940    |
 |   277    0.50000   0.50000   0.20000   |    0.93599   0.93599   0.76916    |
 |   278    0.50000   0.50000   0.40000   |    0.93599   0.93599   0.98892    |
 |   279    0.50000   0.50000   0.60000   |    0.93599   0.93599   1.20868    |
 |   280    0.50000   0.50000   0.80000   |    0.93599   0.93599   1.42844    |
 |   281    0.50000   0.60000   0.00000   |    0.93599   1.12319   0.60434    |
 |   282    0.50000   0.60000   0.20000   |    0.93599   1.12319   0.82410    |
 |   283    0.50000   0.60000   0.40000   |    0.93599   1.12319   1.04386    |
 |   284    0.50000   0.60000   0.60000   |    0.93599   1.12319   1.26362    |
 |   285    0.50000   0.60000   0.80000   |    0.93599   1.12319   1.48338    |
 |   286    0.50000   0.70000   0.00000   |    0.93599   1.31039   0.65928    |
 |   287    0.50000   0.70000   0.20000   |    0.93599   1.31039   0.87904    |
 |   288    0.50000   0.70000   0.40000   |    0.93599   1.31039   1.09880    |
 |   289    0.50000   0.70000   0.60000   |    0.93599   1.31039   1.31856    |
 |   290    0.50000   0.70000   0.80000   |    0.93599   1.31039   1.53832    |
 |   291    0.50000   0.80000   0.00000   |    0.93599   1.49758   0.71422    |
 |   292    0.50000   0.80000   0.20000   |    0.93599   1.49758   0.93398    |
 |   293    0.50000   0.80000   0.40000   |    0.93599   1.49758   1.15374    |
 |   294    0.50000   0.80000   0.60000   |    0.93599   1.49758   1.37350    |
 |   295    0.50000   0.80000   0.80000   |    0.93599   1.49758   1.59326    |
 |   296    0.50000   0.90000   0.00000   |    0.93599   1.68478   0.76916    |
 |   297    0.50000   0.90000   0.20000   |    0.93599   1.68478   0.98892    |
 |   298    0.50000   0.90000   0.40000   |    0.93599   1.68478   1.20868    |
 |   299    0.50000   0.90000   0.60000   |    0.93599   1.68478   1.42844    |
 |   300    0.50000   0.90000   0.80000   |    0.93599   1.68478   1.64820    |
 |   301    0.60000   0.00000   0.00000   |    1.12319   0.00000   0.32964    |
 |   302    0.60000   0.00000   0.20000   |    1.12319   0.00000   0.54940    |
 |   303    0.60000   0.00000   0.40000   |    1.12319   0.00000   0.76916    |
 |   304    0.60000   0.00000   0.60000   |    1.12319   0.00000   0.98892    |
 |   305    0.60000   0.00000   0.80000   |    1.12319   0.00000   1.20868    |
 |   306    0.60000   0.10000   0.00000   |    1.12319   0.18720   0.38458    |
 |   307    0.60000   0.10000   0.20000   |    1.12319   0.18720   0.60434    |
 |   308    0.60000   0.10000   0.40000   |    1.12319   0.18720   0.82410    |
 |   309    0.60000   0.10000   0.60000   |    1.12319   0.18720   1.04386    |
 |   310    0.60000   0.10000   0.80000   |    1.12319   0.18720   1.26362    |
 |   311    0.60000   0.20000   0.00000   |    1.12319   0.37440   0.43952    |
 |   312    0.60000   0.20000   0.20000   |    1.12319   0.37440   0.65928    |
 |   313    0.60000   0.20000   0.40000   |    1.12319   0.37440   0.87904    |
 |   314    0.60000   0.20000   0.60000   |    1.12319   0.37440   1.09880    |
 |   315    0.60000   0.20000   0.80000   |    1.12319   0.37440   1.31856    |
 |   316    0.60000   0.30000   0.00000   |    1.12319   0.56159   0.49446    |
 |   317    0.60000   0.30000   0.20000   |    1.12319   0.56159   0.71422    |
 |   318    0.60000   0.30000   0.40000   |    1.12319   0.56159   0.93398    |
 |   319    0.60000   0.30000   0.60000   |    1.12319   0.56159   1.15374    |
 |   320    0.60000   0.30000   0.80000   |    1.12319   0.56159   1.37350    |
 |   321    0.60000   0.40000   0.00000   |    1.12319   0.74879   0.54940    |
 |   322    0.60000   0.40000   0.20000   |    1.12319   0.74879   0.76916    |
 |   323    0.60000   0.40000   0.40000   |    1.12319   0.74879   0.98892    |
 |   324    0.60000   0.40000   0.60000   |    1.12319   0.74879   1.20868    |
 |   325    0.60000   0.40000   0.80000   |    1.12319   0.74879   1.42844    |
 |   326    0.60000   0.50000   0.00000   |    1.12319   0.93599   0.60434    |
 |   327    0.60000   0.50000   0.20000   |    1.12319   0.93599   0.82410    |
 |   328    0.60000   0.50000   0.40000   |    1.12319   0.93599   1.04386    |
 |   329    0.60000   0.50000   0.60000   |    1.12319   0.93599   1.26362    |
 |   330    0.60000   0.50000   0.80000   |    1.12319   0.93599   1.48338    |
 |   331    0.60000   0.60000   0.00000   |    1.12319   1.12319   0.65928    |
 |   332    0.60000   0.60000   0.20000   |    1.12319   1.12319   0.87904    |
 |   333    0.60000   0.60000   0.40000   |    1.12319   1.12319   1.09880    |
 |   334    0.60000   0.60000   0.60000   |    1.12319   1.12319   1.31856    |
 |   335    0.60000   0.60000   0.80000   |    1.12319   1.12319   1.53832    |
 |   336    0.60000   0.70000   0.00000   |    1.12319   1.31039   0.71422    |
 |   337    0.60000   0.70000   0.20000   |    1.12319   1.31039   0.93398    |
 |   338    0.60000   0.70000   0.40000   |    1.12319   1.31039   1.15374    |
 |   339    0.60000   0.70000   0.60000   |    1.12319   1.31039   1.37350    |
 |   340    0.60000   0.70000   0.80000   |    1.12319   1.31039   1.59326    |
 |   341    0.60000   0.80000   0.00000   |    1.12319   1.49758   0.76916    |
 |   342    0.60000   0.80000   0.20000   |    1.12319   1.49758   0.98892    |
 |   343    0.60000   0.80000   0.40000   |    1.12319   1.49758   1.20868    |
 |   344    0.60000   0.80000   0.60000   |    1.12319   1.49758   1.42844    |
 |   345    0.60000   0.80000   0.80000   |    1.12319   1.49758   1.64820    |
 |   346    0.60000   0.90000   0.00000   |    1.12319   1.68478   0.82410    |
 |   347    0.60000   0.90000   0.20000   |    1.12319   1.68478   1.04386    |
 |   348    0.60000   0.90000   0.40000   |    1.12319   1.68478   1.26362    |
 |   349    0.60000   0.90000   0.60000   |    1.12319   1.68478   1.48338    |
 |   350    0.60000   0.90000   0.80000   |    1.12319   1.68478   1.70314    |
 |   351    0.70000   0.00000   0.00000   |    1.31039   0.00000   0.38458    |
 |   352    0.70000   0.00000   0.20000   |    1.31039   0.00000   0.60434    |
 |   353    0.70000   0.00000   0.40000   |    1.31039   0.00000   0.82410    |
 |   354    0.70000   0.00000   0.60000   |    1.31039   0.00000   1.04386    |
 |   355    0.70000   0.00000   0.80000   |    1.31039   0.00000   1.26362    |
 |   356    0.70000   0.10000   0.00000   |    1.31039   0.18720   0.43952    |
 |   357    0.70000   0.10000   0.20000   |    1.31039   0.18720   0.65928    |
 |   358    0.70000   0.10000   0.40000   |    1.31039   0.18720   0.87904    |
 |   359    0.70000   0.10000   0.60000   |    1.31039   0.18720   1.09880    |
 |   360    0.70000   0.10000   0.80000   |    1.31039   0.18720   1.31856    |
 |   361    0.70000   0.20000   0.00000   |    1.31039   0.37440   0.49446    |
 |   362    0.70000   0.20000   0.20000   |    1.31039   0.37440   0.71422    |
 |   363    0.70000   0.20000   0.40000   |    1.31039   0.37440   0.93398    |
 |   364    0.70000   0.20000   0.60000   |    1.31039   0.37440   1.15374    |
 |   365    0.70000   0.20000   0.80000   |    1.31039   0.37440   1.37350    |
 |   366    0.70000   0.30000   0.00000   |    1.31039   0.56159   0.54940    |
 |   367    0.70000   0.30000   0.20000   |    1.31039   0.56159   0.76916    |
 |   368    0.70000   0.30000   0.40000   |    1.31039   0.56159   0.98892    |
 |   369    0.70000   0.30000   0.60000   |    1.31039   0.56159   1.20868    |
 |   370    0.70000   0.30000   0.80000   |    1.31039   0.56159   1.42844    |
 |   371    0.70000   0.40000   0.00000   |    1.31039   0.74879   0.60434    |
 |   372    0.70000   0.40000   0.20000   |    1.31039   0.74879   0.82410    |
 |   373    0.70000   0.40000   0.40000   |    1.31039   0.74879   1.04386    |
 |   374    0.70000   0.40000   0.60000   |    1.31039   0.74879   1.26362    |
 |   375    0.70000   0.40000   0.80000   |    1.31039   0.74879   1.48338    |
 |   376    0.70000   0.50000   0.00000   |    1.31039   0.93599   0.65928    |
 |   377    0.70000   0.50000   0.20000   |    1.31039   0.93599   0.87904    |
 |   378    0.70000   0.50000   0.40000   |    1.31039   0.93599   1.09880    |
 |   379    0.70000   0.50000   0.60000   |    1.31039   0.93599   1.31856    |
 |   380    0.70000   0.50000   0.80000   |    1.31039   0.93599   1.53832    |
 |   381    0.70000   0.60000   0.00000   |    1.31039   1.12319   0.71422    |
 |   382    0.70000   0.60000   0.20000   |    1.31039   1.12319   0.93398    |
 |   383    0.70000   0.60000   0.40000   |    1.31039   1.12319   1.15374    |
 |   384    0.70000   0.60000   0.60000   |    1.31039   1.12319   1.37350    |
 |   385    0.70000   0.60000   0.80000   |    1.31039   1.12319   1.59326    |
 |   386    0.70000   0.70000   0.00000   |    1.31039   1.31039   0.76916    |
 |   387    0.70000   0.70000   0.20000   |    1.31039   1.31039   0.98892    |
 |   388    0.70000   0.70000   0.40000   |    1.31039   1.31039   1.20868    |
 |   389    0.70000   0.70000   0.60000   |    1.31039   1.31039   1.42844    |
 |   390    0.70000   0.70000   0.80000   |    1.31039   1.31039   1.64820    |
 |   391    0.70000   0.80000   0.00000   |    1.31039   1.49758   0.82410    |
 |   392    0.70000   0.80000   0.20000   |    1.31039   1.49758   1.04386    |
 |   393    0.70000   0.80000   0.40000   |    1.31039   1.49758   1.26362    |
 |   394    0.70000   0.80000   0.60000   |    1.31039   1.49758   1.48338    |
 |   395    0.70000   0.80000   0.80000   |    1.31039   1.49758   1.70314    |
 |   396    0.70000   0.90000   0.00000   |    1.31039   1.68478   0.87904    |
 |   397    0.70000   0.90000   0.20000   |    1.31039   1.68478   1.09880    |
 |   398    0.70000   0.90000   0.40000   |    1.31039   1.68478   1.31856    |
 |   399    0.70000   0.90000   0.60000   |    1.31039   1.68478   1.53832    |
 |   400    0.70000   0.90000   0.80000   |    1.31039   1.68478   1.75808    |
 |   401    0.80000   0.00000   0.00000   |    1.49758   0.00000   0.43952    |
 |   402    0.80000   0.00000   0.20000   |    1.49758   0.00000   0.65928    |
 |   403    0.80000   0.00000   0.40000   |    1.49758   0.00000   0.87904    |
 |   404    0.80000   0.00000   0.60000   |    1.49758   0.00000   1.09880    |
 |   405    0.80000   0.00000   0.80000   |    1.49758   0.00000   1.31856    |
 |   406    0.80000   0.10000   0.00000   |    1.49758   0.18720   0.49446    |
 |   407    0.80000   0.10000   0.20000   |    1.49758   0.18720   0.71422    |
 |   408    0.80000   0.10000   0.40000   |    1.49758   0.18720   0.93398    |
 |   409    0.80000   0.10000   0.60000   |    1.49758   0.18720   1.15374    |
 |   410    0.80000   0.10000   0.80000   |    1.49758   0.18720   1.37350    |
 |   411    0.80000   0.20000   0.00000   |    1.49758   0.37440   0.54940    |
 |   412    0.80000   0.20000   0.20000   |    1.49758   0.37440   0.76916    |
 |   413    0.80000   0.20000   0.40000   |    1.49758   0.37440   0.98892    |
 |   414    0.80000   0.20000   0.60000   |    1.49758   0.37440   1.20868    |
 |   415    0.80000   0.20000   0.80000   |    1.49758   0.37440   1.42844    |
 |   416    0.80000   0.30000   0.00000   |    1.49758   0.56159   0.60434    |
 |   417    0.80000   0.30000   0.20000   |    1.49758   0.56159   0.82410    |
 |   418    0.80000   0.30000   0.40000   |    1.49758   0.56159   1.04386    |
 |   419    0.80000   0.30000   0.60000   |    1.49758   0.56159   1.26362    |
 |   420    0.80000   0.30000   0.80000   |    1.49758   0.56159   1.48338    |
 |   421    0.80000   0.40000   0.00000   |    1.49758   0.74879   0.65928    |
 |   422    0.80000   0.40000   0.20000   |    1.49758   0.74879   0.87904    |
 |   423    0.80000   0.40000   0.40000   |    1.49758   0.74879   1.09880    |
 |   424    0.80000   0.40000   0.60000   |    1.49758   0.74879   1.31856    |
 |   425    0.80000   0.40000   0.80000   |    1.49758   0.74879   1.53832    |
 |   426    0.80000   0.50000   0.00000   |    1.49758   0.93599   0.71422    |
 |   427    0.80000   0.50000   0.20000   |    1.49758   0.93599   0.93398    |
 |   428    0.80000   0.50000   0.40000   |    1.49758   0.93599   1.15374    |
 |   429    0.80000   0.50000   0.60000   |    1.49758   0.93599   1.37350    |
 |   430    0.80000   0.50000   0.80000   |    1.49758   0.93599   1.59326    |
 |   431    0.80000   0.60000   0.00000   |    1.49758   1.12319   0.76916    |
 |   432    0.80000   0.60000   0.20000   |    1.49758   1.12319   0.98892    |
 |   433    0.80000   0.60000   0.40000   |    1.49758   1.12319   1.20868    |
 |   434    0.80000   0.60000   0.60000   |    1.49758   1.12319   1.42844    |
 |   435    0.80000   0.60000   0.80000   |    1.49758   1.12319   1.64820    |
 |   436    0.80000   0.70000   0.00000   |    1.49758   1.31039   0.82410    |
 |   437    0.80000   0.70000   0.20000   |    1.49758   1.31039   1.04386    |
 |   438    0.80000   0.70000   0.40000   |    1.49758   1.31039   1.26362    |
 |   439    0.80000   0.70000   0.60000   |    1.49758   1.31039   1.48338    |
 |   440    0.80000   0.70000   0.80000   |    1.49758   1.31039   1.70314    |
 |   441    0.80000   0.80000   0.00000   |    1.49758   1.49758   0.87904    |
 |   442    0.80000   0.80000   0.20000   |    1.49758   1.49758   1.09880    |
 |   443    0.80000   0.80000   0.40000   |    1.49758   1.49758   1.31856    |
 |   444    0.80000   0.80000   0.60000   |    1.49758   1.49758   1.53832    |
 |   445    0.80000   0.80000   0.80000   |    1.49758   1.49758   1.75808    |
 |   446    0.80000   0.90000   0.00000   |    1.49758   1.68478   0.93398    |
 |   447    0.80000   0.90000   0.20000   |    1.49758   1.68478   1.15374    |
 |   448    0.80000   0.90000   0.40000   |    1.49758   1.68478   1.37350    |
 |   449    0.80000   0.90000   0.60000   |    1.49758   1.68478   1.59326    |
 |   450    0.80000   0.90000   0.80000   |    1.49758   1.68478   1.81302    |
 |   451    0.90000   0.00000   0.00000   |    1.68478   0.00000   0.49446    |
 |   452    0.90000   0.00000   0.20000   |    1.68478   0.00000   0.71422    |
 |   453    0.90000   0.00000   0.40000   |    1.68478   0.00000   0.93398    |
 |   454    0.90000   0.00000   0.60000   |    1.68478   0.00000   1.15374    |
 |   455    0.90000   0.00000   0.80000   |    1.68478   0.00000   1.37350    |
 |   456    0.90000   0.10000   0.00000   |    1.68478   0.18720   0.54940    |
 |   457    0.90000   0.10000   0.20000   |    1.68478   0.18720   0.76916    |
 |   458    0.90000   0.10000   0.40000   |    1.68478   0.18720   0.98892    |
 |   459    0.90000   0.10000   0.60000   |    1.68478   0.18720   1.20868    |
 |   460    0.90000   0.10000   0.80000   |    1.68478   0.18720   1.42844    |
 |   461    0.90000   0.20000   0.00000   |    1.68478   0.37440   0.60434    |
 |   462    0.90000   0.20000   0.20000   |    1.68478   0.37440   0.82410    |
 |   463    0.90000   0.20000   0.40000   |    1.68478   0.37440   1.04386    |
 |   464    0.90000   0.20000   0.60000   |    1.68478   0.37440   1.26362    |
 |   465    0.90000   0.20000   0.80000   |    1.68478   0.37440   1.48338    |
 |   466    0.90000   0.30000   0.00000   |    1.68478   0.56159   0.65928    |
 |   467    0.90000   0.30000   0.20000   |    1.68478   0.56159   0.87904    |
 |   468    0.90000   0.30000   0.40000   |    1.68478   0.56159   1.09880    |
 |   469    0.90000   0.30000   0.60000   |    1.68478   0.56159   1.31856    |
 |   470    0.90000   0.30000   0.80000   |    1.68478   0.56159   1.53832    |
 |   471    0.90000   0.40000   0.00000   |    1.68478   0.74879   0.71422    |
 |   472    0.90000   0.40000   0.20000   |    1.68478   0.74879   0.93398    |
 |   473    0.90000   0.40000   0.40000   |    1.68478   0.74879   1.15374    |
 |   474    0.90000   0.40000   0.60000   |    1.68478   0.74879   1.37350    |
 |   475    0.90000   0.40000   0.80000   |    1.68478   0.74879   1.59326    |
 |   476    0.90000   0.50000   0.00000   |    1.68478   0.93599   0.76916    |
 |   477    0.90000   0.50000   0.20000   |    1.68478   0.93599   0.98892    |
 |   478    0.90000   0.50000   0.40000   |    1.68478   0.93599   1.20868    |
 |   479    0.90000   0.50000   0.60000   |    1.68478   0.93599   1.42844    |
 |   480    0.90000   0.50000   0.80000   |    1.68478   0.93599   1.64820    |
 |   481    0.90000   0.60000   0.00000   |    1.68478   1.12319   0.82410    |
 |   482    0.90000   0.60000   0.20000   |    1.68478   1.12319   1.04386    |
 |   483    0.90000   0.60000   0.40000   |    1.68478   1.12319   1.26362    |
 |   484    0.90000   0.60000   0.60000   |    1.68478   1.12319   1.48338    |
 |   485    0.90000   0.60000   0.80000   |    1.68478   1.12319   1.70314    |
 |   486    0.90000   0.70000   0.00000   |    1.68478   1.31039   0.87904    |
 |   487    0.90000   0.70000   0.20000   |    1.68478   1.31039   1.09880    |
 |   488    0.90000   0.70000   0.40000   |    1.68478   1.31039   1.31856    |
 |   489    0.90000   0.70000   0.60000   |    1.68478   1.31039   1.53832    |
 |   490    0.90000   0.70000   0.80000   |    1.68478   1.31039   1.75808    |
 |   491    0.90000   0.80000   0.00000   |    1.68478   1.49758   0.93398    |
 |   492    0.90000   0.80000   0.20000   |    1.68478   1.49758   1.15374    |
 |   493    0.90000   0.80000   0.40000   |    1.68478   1.49758   1.37350    |
 |   494    0.90000   0.80000   0.60000   |    1.68478   1.49758   1.59326    |
 |   495    0.90000   0.80000   0.80000   |    1.68478   1.49758   1.81302    |
 |   496    0.90000   0.90000   0.00000   |    1.68478   1.68478   0.98892    |
 |   497    0.90000   0.90000   0.20000   |    1.68478   1.68478   1.20868    |
 |   498    0.90000   0.90000   0.40000   |    1.68478   1.68478   1.42844    |
 |   499    0.90000   0.90000   0.60000   |    1.68478   1.68478   1.64820    |
 |   500    0.90000   0.90000   0.80000   |    1.68478   1.68478   1.86796    |
 *----------------------------------------------------------------------------*
  
  
 *---------------------------------- MAIN ------------------------------------*
 |  Number of Wannier Functions               :                 8             |
 |  Number of Objective Wannier Functions     :                 8             |
 |  Number of input Bloch states              :                 8             |
 |  Output verbosity (1=low, 5=high)          :                 2             |
 |  Timing Level (1=low, 5=high)              :                 1             |
 |  Optimisation (0=memory, 3=speed)          :                 3             |
 |  Length Unit                               :               Ang             |
 |  Post-processing setup (write *.nnkp)      :                 F             |
 |  Using Gamma-only branch of algorithms     :                 F             |
 |  Wavefunction (UNK) file-type              :       unformatted             |
 |  Wavefunction spin channel                 :                up             |
 *----------------------------------------------------------------------------*
 *------------------------------- WANNIERISE ---------------------------------*
 |  Total number of iterations                :               500             |
 |  Number of CG steps before reset           :                 5             |
 |  Trial step length for line search         :             2.000             |
 |  Convergence tolerence                     :         0.100E-09             |
 |  Convergence window                        :                -1             |
 |  Iterations between writing output         :                10             |
 |  Iterations between backing up to disk     :                10             |
 |  Write r^2_nm to file                      :                 F             |
 |  Write xyz WF centres to file              :                 F             |
 |  Write on-site energies <0n|H|0n> to file  :                 F             |
 |  Use guiding centre to control phases      :                 F             |
 |  Use phases for initial projections        :                 F             |
 *----------------------------------------------------------------------------*
 *-------------------------------- PLOTTING ----------------------------------*
 |  Plotting Wannier functions                :                 T             |
 |   Size of supercell for plotting           :     3x    3x    3             |
 |   Plotting mode (molecule or crystal)      :           crystal             |
 |   Plotting format                          :          xcrysden             |
 *----------------------------------------------------------------------------*
 |  Plotting interpolated bandstructure       :                 T             |
 |   Number of K-path sections                :                 6             |
 |   Divisions along first K-path section     :               100             |
 |   Output format                            :           gnuplot             |
 |   Output mode                              :               s-k             |
 *----------------------------------------------------------------------------*
 |   K-space path sections:                                                   |
 |    From: G       0.000  0.000  0.000     To: X       0.000  0.000  0.500   |
 |    From: X       0.000  0.000  0.500     To: M       0.457  0.000  0.272   |
 |    From: M       0.457  0.000  0.272     To: Y       0.500  0.000  0.000   |
 |    From: Y       0.500  0.000  0.000     To: K       0.543  0.000 -0.272   |
 |    From: K       0.543  0.000 -0.272     To: F       0.457  0.457  0.043   |
 |    From: F       0.457  0.457  0.043     To: G       0.000  0.000  0.000   |
 *----------------------------------------------------------------------------*
 Time to read parameters        0.028 (sec)

 *---------------------------------- K-MESH ----------------------------------*
 +----------------------------------------------------------------------------+
 |                    Distance to Nearest-Neighbour Shells                    |
 |                    ------------------------------------                    |
 |          Shell             Distance (Ang^-1)          Multiplicity         |
 |          -----             -----------------          ------------         |
 |             1                   0.195094                      4            |
 |             2                   0.219760                      2            |
 |             3                   0.249417                      4            |
 |             4                   0.264738                      2            |
 |             5                   0.286635                      4            |
 |             6                   0.332420                      4            |
 |             7                   0.344065                      4            |
 |             8                   0.390187                      8            |
 |             9                   0.422178                      8            |
 |            10                   0.422787                      4            |
 |            11                   0.427721                      4            |
 |            12                   0.439520                      2            |
 |            13                   0.449868                      8            |
 |            14                   0.498834                      8            |
 |            15                   0.500675                      8            |
 |            16                   0.513093                      4            |
 |            17                   0.528710                      4            |
 |            18                   0.529476                      4            |
 |            19                   0.564275                      4            |
 |            20                   0.568434                      8            |
 |            21                   0.573271                      8            |
 |            22                   0.585281                      4            |
 |            23                   0.591972                      4            |
 |            24                   0.602084                      8            |
 |            25                   0.609858                      4            |
 |            26                   0.625178                      4            |
 |            27                   0.631447                      8            |
 |            28                   0.632669                      4            |
 |            29                   0.647847                      8            |
 |            30                   0.659280                      2            |
 |            31                   0.664840                      8            |
 |            32                   0.677184                      8            |
 |            33                   0.677564                      8            |
 |            34                   0.680654                      4            |
 |            35                   0.688130                      8            |
 |            36                   0.694785                      8            |
 +----------------------------------------------------------------------------+
 | The b-vectors are chosen automatically                                     |
 | Shell:  1 w_b   14.0758492      (Ang^2)                                    |
 | Shell:  1 w_b   13.1366341      (Ang^2)                                    |
 | Shell:  2 w_b    8.7110767      (Ang^2)                                    |
 | Shell:  1 w_b   10.7011090      (Ang^2)                                    |
 | Shell:  2 w_b    5.0026014      (Ang^2)                                    |
 | Shell:  3 w_b    3.5670363      (Ang^2)                                    |
 | The following shells are used:   1,  2,  3                                 |
 +----------------------------------------------------------------------------+
 |                        Shell   # Nearest-Neighbours                        |
 |                        -----   --------------------                        |
 |                          1               4                                 |
 |                          2               2                                 |
 |                          3               4                                 |
 +----------------------------------------------------------------------------+
 | Completeness relation is fully satisfied [Eq. (B1), PRB 56, 12847 (1997)]  |
 +----------------------------------------------------------------------------+
 |                  b_k Vectors (Ang^-1) and Weights (Ang^2)                  |
 |                  ----------------------------------------                  |
 |            No.         b_k(x)      b_k(y)      b_k(z)        w_b           |
 |            ---        --------------------------------     --------        |
 |             1         0.000000    0.187198    0.054940    10.701109        |
 |             2         0.187198    0.000000    0.054940    10.701109        |
 |             3         0.000000   -0.187198   -0.054940    10.701109        |
 |             4        -0.187198    0.000000   -0.054940    10.701109        |
 |             5         0.000000    0.000000    0.219760     5.002601        |
 |             6         0.000000    0.000000   -0.219760     5.002601        |
 |             7         0.000000    0.187198   -0.164820     3.567036        |
 |             8         0.187198    0.000000   -0.164820     3.567036        |
 |             9         0.000000   -0.187198    0.164820     3.567036        |
 |            10        -0.187198    0.000000    0.164820     3.567036        |
 +----------------------------------------------------------------------------+
 |                           b_k Directions (Ang^-1)                          |
 |                           -----------------------                          |
 |            No.           x           y           z                         |
 |            ---        --------------------------------                     |
 |             1         0.000000    0.187198    0.054940                     |
 |             2         0.187198    0.000000    0.054940                     |
 |             3         0.000000    0.000000    0.219760                     |
 |             4         0.000000    0.187198   -0.164820                     |
 |             5         0.187198    0.000000   -0.164820                     |
 +----------------------------------------------------------------------------+
  
 Time to get kmesh              0.204 (sec)
 *============================================================================*
 |                              MEMORY ESTIMATE                               |
 |         Maximum RAM allocated during each phase of the calculation         |
 *============================================================================*
 |                            Wannierise:           13.51 Mb                  |
 |                                                                            |
 |   N.B. by setting optimisation=0 memory usage will be reduced to:          |
 |                            Wannierise:            8.63 Mb                  |
 |   However, this will result in more i/o and slow down the calculation      |
 |                          plot_wannier:           13.51 Mb                  |
 *----------------------------------------------------------------------------*
  
 Starting a new Wannier90 calculation ...


 Reading overlaps from NbP.mmn    :  Created on 19Feb2024 at 11:43:14

 Reading projections from NbP.amn :  Created on 19Feb2024 at 11:41:57

 Time to read overlaps          0.231 (sec)

 done

 
 *------------------------------- WANNIERISE ---------------------------------*
 +--------------------------------------------------------------------+<-- CONV
 | Iter  Delta Spread     RMS Gradient      Spread (Ang^2)      Time  |<-- CONV
 +--------------------------------------------------------------------+<-- CONV
 
 ------------------------------------------------------------------------------
 Initial State
  WF centre and spread    1  (  1.561163,  0.065145,  2.786230 )    19.31717830
  WF centre and spread    2  (  1.677442, -0.007465,  2.985261 )    11.34963208
  WF centre and spread    3  (  1.660479, -0.024494,  3.290072 )    21.74650593
  WF centre and spread    4  (  1.641758, -0.005766,  2.728769 )    16.38994773
  WF centre and spread    5  (  1.728048,  0.022319,  2.094487 )    24.12628808
  WF centre and spread    6  (  1.606563,  1.515836,  4.204479 )    42.50314346
  WF centre and spread    7  (  1.707492,  1.712419,  4.606542 )    25.48593743
  WF centre and spread    8  (  1.555350,  1.520221,  4.174030 )    57.76093791
  Sum of centres and spreads ( 13.138296,  4.798215, 26.869871 )   218.67957093
 
      0     0.219E+03     0.0000000000      218.6795709334       0.00  <-- CONV
        O_D=     59.0799039 O_OD=     94.8105883 O_TOT=    218.6795709 <-- SPRD
 ------------------------------------------------------------------------------
 Cycle:      1
  WF centre and spread    1  (  1.565542,  0.055512,  2.783189 )    18.94842648
  WF centre and spread    2  (  1.677439, -0.008006,  2.987380 )    11.33544537
  WF centre and spread    3  (  1.655138, -0.027304,  3.292328 )    21.79188392
  WF centre and spread    4  (  1.669416, -0.005759,  2.731891 )    15.69669196
  WF centre and spread    5  (  1.724233,  0.019734,  2.091548 )    23.93449288
  WF centre and spread    6  (  1.629887,  1.532934,  4.223498 )    40.34206968
  WF centre and spread    7  (  1.706444,  1.695215,  4.600582 )    25.42556291
  WF centre and spread    8  (  1.548358,  1.547039,  4.185321 )    53.82137729
  Sum of centres and spreads ( 13.176456,  4.809365, 26.895736 )   211.29595049
 
      1    -0.738E+01    11.3373504078      211.2959504888       0.03  <-- CONV
        O_D=     51.8803351 O_OD=     94.6265367 O_TOT=    211.2959505 <-- SPRD
 Delta: O_D= -0.7199569E+01 O_OD= -0.1840516E+00 O_TOT= -0.7383620E+01 <-- DLTA
 ------------------------------------------------------------------------------
 Cycle:     10
  WF centre and spread    1  (  1.537849,  0.002591,  2.392928 )    62.70046292
  WF centre and spread    2  (  1.533493,  0.016451,  3.200807 )    47.89531420
  WF centre and spread    3  (  1.042747,  0.175476,  2.421852 )    84.60649793
  WF centre and spread    4  (  1.636438, -0.000218,  2.442954 )    55.21256036
  WF centre and spread    5  (  0.960601,  0.196961,  1.305060 )    82.30415526
  WF centre and spread    6  (  0.581382,  0.569078,  2.482824 )   112.22764771
  WF centre and spread    7  (  0.317442,  1.284880,  2.653881 )   102.10142580
  WF centre and spread    8  (  1.327625, -0.890712,  0.835173 )   139.71835139
  Sum of centres and spreads (  8.937577,  1.354506, 17.735480 )   686.76641557
 
     10    -0.119E+03    19.1981455038      686.7664155709       0.30  <-- CONV
        O_D=    302.8949271 O_OD=    319.0824098 O_TOT=    686.7664156 <-- SPRD
 Delta: O_D= -0.1138735E+03 O_OD= -0.5471623E+01 O_TOT= -0.1193451E+03 <-- DLTA
 ------------------------------------------------------------------------------

 done

 Cycle:     20
  WF centre and spread    1  (  1.513250, -0.002440,  2.554665 )    40.79894373
  WF centre and spread    2  (  1.632557,  0.039855,  3.208260 )    34.53102527
  WF centre and spread    3  (  1.264207,  0.244179,  2.807192 )    46.41999199
  WF centre and spread    4  (  1.790964, -0.059105,  2.561372 )    37.28896176
  WF centre and spread    5  (  1.649370,  0.135361,  1.619890 )    45.37051657
  WF centre and spread    6  (  0.623633,  0.730785,  2.905024 )    57.20891867
  WF centre and spread    7  (  0.768951,  1.428363,  3.512015 )    51.03681705
  WF centre and spread    8  (  1.181167, -0.853429,  0.953747 )    64.23867647
  Sum of centres and spreads ( 10.424098,  1.663569, 20.122165 )   376.89385150
 
     20    -0.230E+02     7.9470754478      376.8938515020       0.65  <-- CONV
        O_D=     49.0914938 O_OD=    263.0132790 O_TOT=    376.8938515 <-- SPRD
 Delta: O_D= -0.1367471E+02 O_OD= -0.9308731E+01 O_TOT= -0.2298344E+02 <-- DLTA
 ------------------------------------------------------------------------------

 done

 Cycle:     30
  WF centre and spread    1  (  1.491331, -0.001065,  2.528488 )    29.01827935
  WF centre and spread    2  (  1.673131,  0.011181,  3.159891 )    20.97945959
  WF centre and spread    3  (  1.436552,  0.280109,  2.830113 )    32.95626429
  WF centre and spread    4  (  1.803822, -0.102726,  2.616108 )    26.11729793
  WF centre and spread    5  (  1.618409,  0.206644,  1.687336 )    32.77935236
  WF centre and spread    6  (  0.718975,  0.955584,  3.361961 )    45.46092831
  WF centre and spread    7  (  1.135893,  1.499661,  4.027011 )    36.46060175
  WF centre and spread    8  (  0.918733, -0.789205,  0.759820 )    50.17493281
  Sum of centres and spreads ( 10.796846,  2.060184, 20.970728 )   273.94711638
 
     30    -0.162E+02     4.0144895627      273.9471163784       1.02  <-- CONV
        O_D=     27.4577982 O_OD=    181.7002394 O_TOT=    273.9471164 <-- SPRD
 Delta: O_D=  0.5365728E+01 O_OD= -0.2151770E+02 O_TOT= -0.1615198E+02 <-- DLTA
 ------------------------------------------------------------------------------

 done

 Cycle:     40
  WF centre and spread    1  (  1.513474, -0.040805,  2.521496 )    24.25674232
  WF centre and spread    2  (  1.685600,  0.016624,  3.143081 )    16.87660814
  WF centre and spread    3  (  1.497909,  0.276493,  2.813722 )    28.17396271
  WF centre and spread    4  (  1.781814, -0.094593,  2.609924 )    22.32450863
  WF centre and spread    5  (  1.563064,  0.251798,  1.735820 )    28.44171020
  WF centre and spread    6  (  0.861027,  1.025011,  3.590953 )    39.55074112
  WF centre and spread    7  (  1.242119,  1.580263,  4.155410 )    30.48896715
  WF centre and spread    8  (  0.781859, -0.838904,  0.616402 )    43.61180125
  Sum of centres and spreads ( 10.926866,  2.175888, 21.186808 )   233.72504152
 
     40    -0.500E+01     3.0738509063      233.7250415240       1.37  <-- CONV
        O_D=     17.6349822 O_OD=    151.3009806 O_TOT=    233.7250415 <-- SPRD
 Delta: O_D=  0.4724455E+00 O_OD= -0.5474230E+01 O_TOT= -0.5001785E+01 <-- DLTA
 ------------------------------------------------------------------------------

 done

 Cycle:     50
  WF centre and spread    1  (  1.534610, -0.006396,  2.496175 )    20.22566775
  WF centre and spread    2  (  1.680003,  0.027317,  3.121134 )    13.69023299
  WF centre and spread    3  (  1.583138,  0.236403,  2.767668 )    23.76009683
  WF centre and spread    4  (  1.761994, -0.081642,  2.573838 )    18.90682343
  WF centre and spread    5  (  1.511990,  0.357938,  1.742924 )    25.10052983
  WF centre and spread    6  (  1.053581,  1.157599,  3.822652 )    35.42325008
  WF centre and spread    7  (  1.409092,  1.654578,  4.304597 )    25.84953814
  WF centre and spread    8  (  0.602120, -1.031984,  0.502886 )    39.27794317
  Sum of centres and spreads ( 11.136528,  2.313814, 21.331876 )   202.23408221
 
     50    -0.286E+01     2.8905933884      202.2340822068       1.72  <-- CONV
        O_D=     16.4928692 O_OD=    120.9521343 O_TOT=    202.2340822 <-- SPRD
 Delta: O_D=  0.1012773E+01 O_OD= -0.3869875E+01 O_TOT= -0.2857102E+01 <-- DLTA
 ------------------------------------------------------------------------------

 done

 Cycle:     60
  WF centre and spread    1  (  1.555005,  0.018061,  2.476621 )    18.28299172
  WF centre and spread    2  (  1.670389,  0.030512,  3.106908 )    12.29668415
  WF centre and spread    3  (  1.627533,  0.235307,  2.740350 )    21.68499152
  WF centre and spread    4  (  1.757904, -0.081524,  2.562216 )    17.35584101
  WF centre and spread    5  (  1.459048,  0.399345,  1.744776 )    23.59079651
  WF centre and spread    6  (  1.136127,  1.198203,  3.922945 )    32.38796153
  WF centre and spread    7  (  1.523618,  1.719145,  4.377072 )    23.56092341
  WF centre and spread    8  (  0.476969, -1.171596,  0.424741 )    36.07311427
  Sum of centres and spreads ( 11.206593,  2.347452, 21.355628 )   185.23330413
 
     60    -0.166E+01     2.8077212391      185.2333041269       2.07  <-- CONV
        O_D=     14.3482926 O_OD=    106.0959329 O_TOT=    185.2333041 <-- SPRD
 Delta: O_D= -0.7896825E+00 O_OD= -0.8750287E+00 O_TOT= -0.1664711E+01 <-- DLTA
 ------------------------------------------------------------------------------

 done

 Cycle:     70
  WF centre and spread    1  (  1.552124,  0.039848,  2.458854 )    16.91514901
  WF centre and spread    2  (  1.662900,  0.031774,  3.099623 )    11.52606235
  WF centre and spread    3  (  1.640136,  0.228713,  2.708245 )    20.27296407
  WF centre and spread    4  (  1.754698, -0.062049,  2.561224 )    16.09690259
  WF centre and spread    5  (  1.367608,  0.430728,  1.734438 )    22.63436273
  WF centre and spread    6  (  1.168609,  1.217390,  3.982465 )    30.37149439
  WF centre and spread    7  (  1.591197,  1.774119,  4.433099 )    22.19152760
  WF centre and spread    8  (  0.379438, -1.328308,  0.364227 )    33.73118075
  Sum of centres and spreads ( 11.116710,  2.332213, 21.342175 )   173.73964349
 
     70    -0.565E+00     2.3414696900      173.7396434891       2.42  <-- CONV
        O_D=     13.5168309 O_OD=     95.4337339 O_TOT=    173.7396435 <-- SPRD
 Delta: O_D= -0.2677636E+00 O_OD= -0.2968717E+00 O_TOT= -0.5646353E+00 <-- DLTA
 ------------------------------------------------------------------------------

 done

 Cycle:     80
  WF centre and spread    1  (  1.541428,  0.049098,  2.448614 )    15.57479144
  WF centre and spread    2  (  1.659042,  0.044485,  3.100224 )    10.95484509
  WF centre and spread    3  (  1.636804,  0.230905,  2.696915 )    19.18468293
  WF centre and spread    4  (  1.754209, -0.047009,  2.551005 )    14.92293763
  WF centre and spread    5  (  1.262352,  0.515620,  1.715147 )    21.72897337
  WF centre and spread    6  (  1.151486,  1.247725,  4.038935 )    28.96068948
  WF centre and spread    7  (  1.621433,  1.796166,  4.483793 )    21.06242457
  WF centre and spread    8  (  0.287988, -1.453026,  0.304710 )    31.33249241
  Sum of centres and spreads ( 10.914742,  2.383963, 21.339343 )   163.72183692
 
     80    -0.147E+01     2.0878139684      163.7218369204       2.77  <-- CONV
        O_D=     13.2708583 O_OD=     85.6618999 O_TOT=    163.7218369 <-- SPRD
 Delta: O_D=  0.4859404E+00 O_OD= -0.1953723E+01 O_TOT= -0.1467783E+01 <-- DLTA
 ------------------------------------------------------------------------------

 done

 Cycle:     90
  WF centre and spread    1  (  1.564830,  0.092694,  2.442370 )    14.50210528
  WF centre and spread    2  (  1.661483,  0.055420,  3.094333 )    10.64600299
  WF centre and spread    3  (  1.644883,  0.288278,  2.700802 )    18.31290562
  WF centre and spread    4  (  1.755260, -0.039659,  2.546136 )    14.10956697
  WF centre and spread    5  (  1.143645,  0.616203,  1.667279 )    21.05882673
  WF centre and spread    6  (  1.133251,  1.290310,  4.059568 )    27.43388119
  WF centre and spread    7  (  1.644842,  1.807263,  4.531400 )    19.89593836
  WF centre and spread    8  (  0.204606, -1.623722,  0.225671 )    28.59881536
  Sum of centres and spreads ( 10.752800,  2.486787, 21.267560 )   154.55804249
 
     90    -0.742E+00     2.6798279762      154.5580424902       3.14  <-- CONV
        O_D=     11.7190471 O_OD=     78.0499167 O_TOT=    154.5580425 <-- SPRD
 Delta: O_D= -0.5568314E+00 O_OD= -0.1854427E+00 O_TOT= -0.7422740E+00 <-- DLTA
 ------------------------------------------------------------------------------

 done

 Cycle:    100
  WF centre and spread    1  (  1.565917,  0.101067,  2.445127 )    13.98056914
  WF centre and spread    2  (  1.672356,  0.059304,  3.092573 )    10.38865512
  WF centre and spread    3  (  1.637307,  0.350669,  2.700087 )    17.75195829
  WF centre and spread    4  (  1.756323, -0.037324,  2.537308 )    13.63747830
  WF centre and spread    5  (  1.048120,  0.715409,  1.603269 )    20.39938204
  WF centre and spread    6  (  1.076932,  1.286937,  4.109066 )    26.39528471
  WF centre and spread    7  (  1.650313,  1.794560,  4.558223 )    19.11964237
  WF centre and spread    8  (  0.178736, -1.744868,  0.181850 )    26.92024463
  Sum of centres and spreads ( 10.586004,  2.525754, 21.227504 )   148.59321459
 
    100    -0.527E+00     2.2864009172      148.5932145878       3.49  <-- CONV
        O_D=     10.9600356 O_OD=     72.8441003 O_TOT=    148.5932146 <-- SPRD
 Delta: O_D= -0.4365044E+00 O_OD= -0.9006893E-01 O_TOT= -0.5265734E+00 <-- DLTA
 ------------------------------------------------------------------------------

 done

 Cycle:    110
  WF centre and spread    1  (  1.574375,  0.102243,  2.437717 )    13.71642959
  WF centre and spread    2  (  1.676829,  0.058619,  3.091712 )    10.31269407
  WF centre and spread    3  (  1.635753,  0.388048,  2.696961 )    17.45447883
  WF centre and spread    4  (  1.754973, -0.043248,  2.534577 )    13.46009789
  WF centre and spread    5  (  1.006039,  0.777295,  1.569913 )    20.10725980
  WF centre and spread    6  (  1.046799,  1.271881,  4.129163 )    25.85311221
  WF centre and spread    7  (  1.658210,  1.787411,  4.572487 )    18.75054430
  WF centre and spread    8  (  0.169360, -1.798484,  0.166059 )    25.97415878
  Sum of centres and spreads ( 10.522338,  2.543765, 21.198588 )   145.62877548
 
    110    -0.419E+00     1.7718273312      145.6287754789       3.84  <-- CONV
        O_D=     10.4252745 O_OD=     70.4144223 O_TOT=    145.6287755 <-- SPRD
 Delta: O_D= -0.2574661E+00 O_OD= -0.1618820E+00 O_TOT= -0.4193481E+00 <-- DLTA
 ------------------------------------------------------------------------------

 done

 Cycle:    120
  WF centre and spread    1  (  1.580291,  0.103304,  2.435447 )    13.52491153
  WF centre and spread    2  (  1.681201,  0.055711,  3.090802 )    10.25484384
  WF centre and spread    3  (  1.635340,  0.427935,  2.688670 )    17.20832837
  WF centre and spread    4  (  1.750612, -0.059236,  2.528915 )    13.32379207
  WF centre and spread    5  (  0.964602,  0.838385,  1.536729 )    19.82911428
  WF centre and spread    6  (  1.019264,  1.246448,  4.159177 )    25.33540518
  WF centre and spread    7  (  1.668554,  1.782629,  4.584479 )    18.36088112
  WF centre and spread    8  (  0.153423, -1.852667,  0.151427 )    25.13745150
  Sum of centres and spreads ( 10.453287,  2.542508, 21.175645 )   142.97472789
 
    120    -0.926E-01     1.3783497057      142.9747278863       4.19  <-- CONV
        O_D=     10.1896413 O_OD=     67.9960078 O_TOT=    142.9747279 <-- SPRD
 Delta: O_D= -0.3854028E-01 O_OD= -0.5405779E-01 O_TOT= -0.9259807E-01 <-- DLTA
 ------------------------------------------------------------------------------

 done

 Cycle:    130
  WF centre and spread    1  (  1.589306,  0.113141,  2.429568 )    13.29215750
  WF centre and spread    2  (  1.684084,  0.052048,  3.090299 )    10.19939782
  WF centre and spread    3  (  1.632838,  0.476496,  2.677327 )    16.88459398
  WF centre and spread    4  (  1.743114, -0.064946,  2.525044 )    13.18712143
  WF centre and spread    5  (  0.913915,  0.911001,  1.493262 )    19.41712265
  WF centre and spread    6  (  0.988289,  1.237532,  4.203097 )    24.77147151
  WF centre and spread    7  (  1.672462,  1.790977,  4.602618 )    17.93701384
  WF centre and spread    8  (  0.150570, -1.908254,  0.134015 )    24.13253474
  Sum of centres and spreads ( 10.374578,  2.607995, 21.155230 )   139.82141346
 
    130    -0.197E+00     1.7178920553      139.8214134639       4.55  <-- CONV
        O_D=      9.8998664 O_OD=     65.1324683 O_TOT=    139.8214135 <-- SPRD
 Delta: O_D= -0.1207414E+00 O_OD= -0.7660250E-01 O_TOT= -0.1973439E+00 <-- DLTA
 ------------------------------------------------------------------------------

 done

 Cycle:    140
  WF centre and spread    1  (  1.590850,  0.116708,  2.432924 )    13.16721714
  WF centre and spread    2  (  1.685230,  0.050176,  3.089234 )    10.15808718
  WF centre and spread    3  (  1.631688,  0.502229,  2.673315 )    16.71767124
  WF centre and spread    4  (  1.739460, -0.070629,  2.523189 )    13.10295093
  WF centre and spread    5  (  0.892484,  0.949501,  1.474907 )    19.16611672
  WF centre and spread    6  (  0.971265,  1.242003,  4.223067 )    24.38839884
  WF centre and spread    7  (  1.674631,  1.798067,  4.615357 )    17.75643728
  WF centre and spread    8  (  0.141867, -1.927818,  0.131339 )    23.63358505
  Sum of centres and spreads ( 10.327476,  2.660236, 21.163333 )   138.09046437
 
    140    -0.723E-02     1.3227439221      138.0904643651       4.90  <-- CONV
        O_D=      9.7217555 O_OD=     63.5796301 O_TOT=    138.0904644 <-- SPRD
 Delta: O_D=  0.3617476E-04 O_OD= -0.7267589E-02 O_TOT= -0.7231415E-02 <-- DLTA
 ------------------------------------------------------------------------------

 done

 Cycle:    150
  WF centre and spread    1  (  1.592883,  0.118556,  2.432385 )    13.06649781
  WF centre and spread    2  (  1.685259,  0.047839,  3.088206 )    10.13065378
  WF centre and spread    3  (  1.632561,  0.521820,  2.669788 )    16.58366001
  WF centre and spread    4  (  1.735113, -0.076695,  2.521053 )    13.06545021
  WF centre and spread    5  (  0.876688,  0.978168,  1.461613 )    18.98536023
  WF centre and spread    6  (  0.957337,  1.246194,  4.248186 )    24.12747502
  WF centre and spread    7  (  1.675743,  1.807067,  4.625626 )    17.66275079
  WF centre and spread    8  (  0.133349, -1.939155,  0.128360 )    23.29314425
  Sum of centres and spreads ( 10.288932,  2.703793, 21.175217 )   136.91499210
 
    150    -0.774E-01     1.3177022396      136.9149920954       5.25  <-- CONV
        O_D=      9.6534828 O_OD=     62.4724306 O_TOT=    136.9149921 <-- SPRD
 Delta: O_D= -0.5532467E-01 O_OD= -0.2206958E-01 O_TOT= -0.7739425E-01 <-- DLTA
 ------------------------------------------------------------------------------

 done

 Cycle:    160
  WF centre and spread    1  (  1.590031,  0.118838,  2.435468 )    12.97774201
  WF centre and spread    2  (  1.684861,  0.044691,  3.087791 )    10.10485397
  WF centre and spread    3  (  1.633751,  0.541735,  2.665067 )    16.48812617
  WF centre and spread    4  (  1.729678, -0.083239,  2.519586 )    13.02301686
  WF centre and spread    5  (  0.865175,  1.003229,  1.449194 )    18.84771538
  WF centre and spread    6  (  0.948178,  1.249201,  4.268108 )    23.88014413
  WF centre and spread    7  (  1.679914,  1.808834,  4.634910 )    17.55721176
  WF centre and spread    8  (  0.127319, -1.954217,  0.126106 )    22.96587009
  Sum of centres and spreads ( 10.258907,  2.729072, 21.186228 )   135.84468037
 
    160    -0.852E-01     1.0645325815      135.8446803737       5.60  <-- CONV
        O_D=      9.5166168 O_OD=     61.5389848 O_TOT=    135.8446804 <-- SPRD
 Delta: O_D=  0.4863412E-01 O_OD= -0.1338464E+00 O_TOT= -0.8521226E-01 <-- DLTA
 ------------------------------------------------------------------------------

 done

 Cycle:    170
  WF centre and spread    1  (  1.591183,  0.117049,  2.435775 )    12.91771533
  WF centre and spread    2  (  1.684210,  0.042176,  3.087755 )    10.08908344
  WF centre and spread    3  (  1.634715,  0.554044,  2.661249 )    16.43271059
  WF centre and spread    4  (  1.725455, -0.086363,  2.518190 )    13.00609816
  WF centre and spread    5  (  0.858593,  1.016813,  1.441511 )    18.76171968
[...]
  WF centre and spread    2  (  1.680012,  0.033433,  3.089208 )    10.02936211
  WF centre and spread    3  (  1.636063,  0.591417,  2.650330 )    16.25717892
  WF centre and spread    4  (  1.718775, -0.101901,  2.516392 )    12.96365717
  WF centre and spread    5  (  0.842397,  1.062248,  1.419399 )    18.50284282
  WF centre and spread    6  (  0.921371,  1.257849,  4.332849 )    23.23837503
  WF centre and spread    7  (  1.686508,  1.818104,  4.661042 )    17.34236609
  WF centre and spread    8  (  0.089648, -1.986087,  0.128899 )    22.10313120
  Sum of centres and spreads ( 10.167635,  2.792293, 21.240770 )   133.18850330
 
    350    -0.235E-02     2.3586984196      133.1885032996      12.27  <-- CONV
        O_D=      8.8695229 O_OD=     59.5299017 O_TOT=    133.1885033 <-- SPRD
 Delta: O_D= -0.1556984E-02 O_OD= -0.7966185E-03 O_TOT= -0.2353603E-02 <-- DLTA
 ------------------------------------------------------------------------------

 done

 Cycle:    360
  WF centre and spread    1  (  1.596120,  0.117105,  2.441936 )    12.75136116
  WF centre and spread    2  (  1.679941,  0.033286,  3.089253 )    10.02815086
  WF centre and spread    3  (  1.636051,  0.592021,  2.650111 )    16.25433498
  WF centre and spread    4  (  1.718697, -0.102208,  2.516406 )    12.96368728
  WF centre and spread    5  (  0.842010,  1.062961,  1.419048 )    18.49959258
  WF centre and spread    6  (  0.920261,  1.256557,  4.333741 )    23.23820359
  WF centre and spread    7  (  1.686515,  1.817942,  4.661376 )    17.34182479
  WF centre and spread    8  (  0.090901, -1.986285,  0.130363 )    22.09462302
  Sum of centres and spreads ( 10.170497,  2.791380, 21.242234 )   133.17177826
 
    360    -0.108E-01     3.1597314458      133.1717782575      12.62  <-- CONV
        O_D=      8.8716128 O_OD=     59.5110868 O_TOT=    133.1717783 <-- SPRD
 Delta: O_D= -0.1016378E-01 O_OD= -0.6539977E-03 O_TOT= -0.1081778E-01 <-- DLTA
 ------------------------------------------------------------------------------

 done

 Cycle:    370
  WF centre and spread    1  (  1.592850,  0.117183,  2.442915 )    12.74718712
  WF centre and spread    2  (  1.679891,  0.033186,  3.089303 )    10.02751463
  WF centre and spread    3  (  1.636072,  0.592434,  2.649966 )    16.25233103
  WF centre and spread    4  (  1.718580, -0.102459,  2.516394 )    12.96368572
  WF centre and spread    5  (  0.841843,  1.063462,  1.418685 )    18.49577298
  WF centre and spread    6  (  0.919769,  1.258098,  4.332654 )    23.23117726
  WF centre and spread    7  (  1.686004,  1.818409,  4.661767 )    17.34056171
  WF centre and spread    8  (  0.089961, -1.987717,  0.128451 )    22.08728352
  Sum of centres and spreads ( 10.164971,  2.792596, 21.240135 )   133.14551397
 
    370    -0.843E-03     2.7427225770      133.1455139664      12.97  <-- CONV
        O_D=      8.8610207 O_OD=     59.4954146 O_TOT=    133.1455140 <-- SPRD
 Delta: O_D=  0.5613409E-03 O_OD= -0.1404384E-02 O_TOT= -0.8430430E-03 <-- DLTA
 ------------------------------------------------------------------------------

 done

 Cycle:    380
  WF centre and spread    1  (  1.593650,  0.117193,  2.442220 )    12.74383104
  WF centre and spread    2  (  1.679805,  0.033056,  3.089344 )    10.02652096
  WF centre and spread    3  (  1.636071,  0.592999,  2.649807 )    16.24912632
  WF centre and spread    4  (  1.718510, -0.102676,  2.516395 )    12.96327848
  WF centre and spread    5  (  0.841546,  1.064248,  1.418403 )    18.49049602
  WF centre and spread    6  (  0.919991,  1.262309,  4.336927 )    23.22773320
  WF centre and spread    7  (  1.685306,  1.818719,  4.662522 )    17.33971732
  WF centre and spread    8  (  0.089603, -1.986791,  0.128761 )    22.07689508
  Sum of centres and spreads ( 10.164481,  2.799057, 21.244378 )   133.11759841
 
    380     0.601E-03     3.2148176330      133.1175984117      13.32  <-- CONV
        O_D=      8.8567868 O_OD=     59.4717329 O_TOT=    133.1175984 <-- SPRD
 Delta: O_D=  0.1076291E-02 O_OD= -0.4755479E-03 O_TOT=  0.6007433E-03 <-- DLTA
 ------------------------------------------------------------------------------

 done

 Cycle:    390
  WF centre and spread    1  (  1.593521,  0.117064,  2.442724 )    12.74160905
  WF centre and spread    2  (  1.679703,  0.032899,  3.089417 )    10.02618516
  WF centre and spread    3  (  1.636041,  0.593563,  2.649599 )    16.24665545
  WF centre and spread    4  (  1.718466, -0.102951,  2.516396 )    12.96316680
  WF centre and spread    5  (  0.841203,  1.065060,  1.418094 )    18.48600655
  WF centre and spread    6  (  0.920049,  1.259076,  4.335729 )    23.21239665
  WF centre and spread    7  (  1.686190,  1.818959,  4.662009 )    17.33856054
  WF centre and spread    8  (  0.088153, -1.988498,  0.128282 )    22.06892250
  Sum of centres and spreads ( 10.163327,  2.795172, 21.242249 )   133.08350270
 
    390    -0.180E-02     1.9556540470      133.0835027045      14.66  <-- CONV
        O_D=      8.8439606 O_OD=     59.4504634 O_TOT=    133.0835027 <-- SPRD
 Delta: O_D=  0.2220942E-04 O_OD= -0.1818420E-02 O_TOT= -0.1796210E-02 <-- DLTA
 ------------------------------------------------------------------------------

 done

 Cycle:    400
  WF centre and spread    1  (  1.592794,  0.117049,  2.443341 )    12.73920764
  WF centre and spread    2  (  1.679643,  0.032753,  3.089446 )    10.02513082
  WF centre and spread    3  (  1.636071,  0.594095,  2.649464 )    16.24357317
  WF centre and spread    4  (  1.718412, -0.103159,  2.516393 )    12.96250017
  WF centre and spread    5  (  0.840974,  1.065872,  1.417816 )    18.48129535
  WF centre and spread    6  (  0.919266,  1.258719,  4.335653 )    23.20560747
  WF centre and spread    7  (  1.685589,  1.818807,  4.662878 )    17.33537501
  WF centre and spread    8  (  0.087569, -1.985811,  0.128965 )    22.06075976
  Sum of centres and spreads ( 10.160317,  2.798326, 21.243957 )   133.05344939
 
    400    -0.766E-03     2.2415415265      133.0534493949      15.01  <-- CONV
        O_D=      8.8363387 O_OD=     59.4280320 O_TOT=    133.0534494 <-- SPRD
 Delta: O_D=  0.4408596E-03 O_OD= -0.1207061E-02 O_TOT= -0.7662011E-03 <-- DLTA
 ------------------------------------------------------------------------------

 done

 Cycle:    410
  WF centre and spread    1  (  1.592885,  0.116983,  2.443333 )    12.73910464
  WF centre and spread    2  (  1.679592,  0.032635,  3.089469 )    10.02428102
  WF centre and spread    3  (  1.636094,  0.594439,  2.649307 )    16.24231669
  WF centre and spread    4  (  1.718368, -0.103337,  2.516395 )    12.96210504
  WF centre and spread    5  (  0.840716,  1.066348,  1.417533 )    18.47979158
  WF centre and spread    6  (  0.919217,  1.259396,  4.336737 )    23.20489833
  WF centre and spread    7  (  1.686294,  1.818906,  4.662814 )    17.33516832
  WF centre and spread    8  (  0.091164, -1.987821,  0.129715 )    22.05724861
  Sum of centres and spreads ( 10.164330,  2.797549, 21.245304 )   133.04491424
 
    410    -0.266E-01     3.9128562300      133.0449142387      15.36  <-- CONV
        O_D=      8.8372436 O_OD=     59.4185919 O_TOT=    133.0449142 <-- SPRD
 Delta: O_D= -0.2516640E-01 O_OD= -0.1427109E-02 O_TOT= -0.2659350E-01 <-- DLTA
 ------------------------------------------------------------------------------

 done

 Cycle:    420
  WF centre and spread    1  (  1.593609,  0.117159,  2.442866 )    12.73406713
  WF centre and spread    2  (  1.679473,  0.032402,  3.089550 )    10.02289209
  WF centre and spread    3  (  1.636118,  0.595370,  2.649067 )    16.23743694
  WF centre and spread    4  (  1.718155, -0.103719,  2.516411 )    12.96125076
  WF centre and spread    5  (  0.840213,  1.067528,  1.416988 )    18.47177120
  WF centre and spread    6  (  0.917747,  1.259415,  4.337996 )    23.19445908
  WF centre and spread    7  (  1.686651,  1.819100,  4.663211 )    17.33229253
  WF centre and spread    8  (  0.082376, -1.984235,  0.127626 )    22.04604406
  Sum of centres and spreads ( 10.154341,  2.803019, 21.243716 )   133.00021379
 
    420    -0.273E-02     4.0181977722      133.0002137943      15.72  <-- CONV
        O_D=      8.8295639 O_OD=     59.3815712 O_TOT=    133.0002138 <-- SPRD
 Delta: O_D= -0.4883969E-03 O_OD= -0.2242565E-02 O_TOT= -0.2730961E-02 <-- DLTA
 ------------------------------------------------------------------------------

 done

 Cycle:    430
  WF centre and spread    1  (  1.593818,  0.117077,  2.443113 )    12.73221277
  WF centre and spread    2  (  1.679427,  0.032288,  3.089577 )    10.02239160
  WF centre and spread    3  (  1.636154,  0.595936,  2.648854 )    16.23566025
  WF centre and spread    4  (  1.718106, -0.103982,  2.516430 )    12.96068759
  WF centre and spread    5  (  0.839907,  1.068158,  1.416732 )    18.46809499
  WF centre and spread    6  (  0.918238,  1.259199,  4.338949 )    23.18926858
  WF centre and spread    7  (  1.686222,  1.821844,  4.664245 )    17.33348046
  WF centre and spread    8  (  0.089398, -1.987988,  0.128957 )    22.04042749
  Sum of centres and spreads ( 10.161271,  2.802532, 21.246857 )   132.98222373
 
    430    -0.599E-02     2.4262891913      132.9822237349      16.07  <-- CONV
        O_D=      8.8295520 O_OD=     59.3635930 O_TOT=    132.9822237 <-- SPRD
 Delta: O_D= -0.5482519E-02 O_OD= -0.5044162E-03 O_TOT= -0.5986935E-02 <-- DLTA
 ------------------------------------------------------------------------------

 done

 Cycle:    440
  WF centre and spread    1  (  1.594316,  0.116960,  2.444065 )    12.72974823
  WF centre and spread    2  (  1.679350,  0.032130,  3.089628 )    10.02144427
  WF centre and spread    3  (  1.636151,  0.596670,  2.648656 )    16.23227754
  WF centre and spread    4  (  1.718016, -0.104317,  2.516439 )    12.96079828
  WF centre and spread    5  (  0.839517,  1.069172,  1.416493 )    18.46183177
  WF centre and spread    6  (  0.917194,  1.261027,  4.338619 )    23.17937432
  WF centre and spread    7  (  1.686675,  1.819360,  4.663679 )    17.32743944
  WF centre and spread    8  (  0.084896, -1.988692,  0.127888 )    22.02128990
  Sum of centres and spreads ( 10.156114,  2.802311, 21.245467 )   132.93420374
 
    440    -0.525E-02     1.6171090704      132.9342037384      16.42  <-- CONV
        O_D=      8.8085997 O_OD=     59.3365254 O_TOT=    132.9342037 <-- SPRD
 Delta: O_D= -0.6536214E-04 O_OD= -0.5183109E-02 O_TOT= -0.5248471E-02 <-- DLTA
 ------------------------------------------------------------------------------

 done

 Cycle:    450
  WF centre and spread    1  (  1.593286,  0.116978,  2.443990 )    12.72490452
  WF centre and spread    2  (  1.679277,  0.031985,  3.089667 )    10.02046829
  WF centre and spread    3  (  1.636160,  0.597300,  2.648485 )    16.22931827
  WF centre and spread    4  (  1.717981, -0.104633,  2.516454 )    12.95976737
  WF centre and spread    5  (  0.839199,  1.069980,  1.416172 )    18.45635153
  WF centre and spread    6  (  0.918933,  1.260723,  4.340222 )    23.17304162
  WF centre and spread    7  (  1.685652,  1.821315,  4.664860 )    17.32679510
  WF centre and spread    8  (  0.085395, -1.988301,  0.128933 )    22.01215842
  Sum of centres and spreads ( 10.155883,  2.805346, 21.248785 )   132.90280513
 
    450    -0.344E-02     2.1031270287      132.9028051268      16.77  <-- CONV
        O_D=      8.8003015 O_OD=     59.3134249 O_TOT=    132.9028051 <-- SPRD
 Delta: O_D= -0.2042499E-02 O_OD= -0.1395455E-02 O_TOT= -0.3437954E-02 <-- DLTA
 ------------------------------------------------------------------------------

 done

 Cycle:    460
  WF centre and spread    1  (  1.593321,  0.116992,  2.444144 )    12.72292346
  WF centre and spread    2  (  1.679223,  0.031881,  3.089684 )    10.01987253
  WF centre and spread    3  (  1.636181,  0.597707,  2.648380 )    16.22691253
  WF centre and spread    4  (  1.717931, -0.104783,  2.516379 )    12.95933604
  WF centre and spread    5  (  0.838991,  1.070519,  1.415950 )    18.45266348
  WF centre and spread    6  (  0.917734,  1.261397,  4.340646 )    23.16620573
  WF centre and spread    7  (  1.685472,  1.820027,  4.664522 )    17.32334394
  WF centre and spread    8  (  0.082636, -1.988479,  0.128283 )    22.00676188
  Sum of centres and spreads ( 10.151491,  2.805261, 21.247987 )   132.87801959
 
    460    -0.108E-02     1.5571025725      132.8780195887      17.12  <-- CONV
        O_D=      8.7927697 O_OD=     59.2961712 O_TOT=    132.8780196 <-- SPRD
 Delta: O_D= -0.7633551E-03 O_OD= -0.3194622E-03 O_TOT= -0.1082817E-02 <-- DLTA
 ------------------------------------------------------------------------------

 done

 Cycle:    470
  WF centre and spread    1  (  1.595662,  0.116845,  2.443477 )    12.72530639
  WF centre and spread    2  (  1.679230,  0.031778,  3.089700 )    10.01923592
  WF centre and spread    3  (  1.636163,  0.598104,  2.648225 )    16.22566244
  WF centre and spread    4  (  1.717969, -0.104947,  2.516315 )    12.95979293
  WF centre and spread    5  (  0.838781,  1.070888,  1.415530 )    18.45378513
  WF centre and spread    6  (  0.917361,  1.261718,  4.340796 )    23.16562788
  WF centre and spread    7  (  1.685491,  1.822105,  4.665036 )    17.32706830
  WF centre and spread    8  (  0.088640, -1.988688,  0.129231 )    22.02323176
  Sum of centres and spreads ( 10.159298,  2.807803, 21.248310 )   132.89971075
 
    470     0.804E-02     4.3171673259      132.8997107479      17.47  <-- CONV
        O_D=      8.8211460 O_OD=     59.2894860 O_TOT=    132.8997107 <-- SPRD
 Delta: O_D=  0.8612839E-02 O_OD= -0.5765603E-03 O_TOT=  0.8036279E-02 <-- DLTA
 ------------------------------------------------------------------------------

 done

 Cycle:    480
  WF centre and spread    1  (  1.593167,  0.116869,  2.444290 )    12.72085755
  WF centre and spread    2  (  1.679137,  0.031610,  3.089725 )    10.01840517
  WF centre and spread    3  (  1.636180,  0.598758,  2.648029 )    16.22304025
  WF centre and spread    4  (  1.717752, -0.105211,  2.516406 )    12.95901977
  WF centre and spread    5  (  0.838427,  1.071863,  1.415069 )    18.44767244
  WF centre and spread    6  (  0.916572,  1.261809,  4.341362 )    23.15765492
  WF centre and spread    7  (  1.685949,  1.821621,  4.664406 )    17.32497789
  WF centre and spread    8  (  0.084321, -1.987762,  0.127590 )    21.99069398
  Sum of centres and spreads ( 10.151504,  2.809559, 21.246877 )   132.84232198
 
    480    -0.781E-02     1.7801721330      132.8423219772      17.82  <-- CONV
        O_D=      8.7891250 O_OD=     59.2641183 O_TOT=    132.8423220 <-- SPRD
 Delta: O_D=  0.2371031E-02 O_OD= -0.1017938E-01 O_TOT= -0.7808349E-02 <-- DLTA
 ------------------------------------------------------------------------------

 done

 Cycle:    490
  WF centre and spread    1  (  1.594597,  0.117106,  2.443461 )    12.71771290
  WF centre and spread    2  (  1.679054,  0.031498,  3.089778 )    10.01816878
  WF centre and spread    3  (  1.636167,  0.599250,  2.647898 )    16.22060780
  WF centre and spread    4  (  1.717259, -0.105495,  2.516708 )    12.95911086
  WF centre and spread    5  (  0.838038,  1.072517,  1.414868 )    18.44534067
  WF centre and spread    6  (  0.915520,  1.263019,  4.342466 )    23.15060800
  WF centre and spread    7  (  1.686318,  1.820717,  4.665220 )    17.31986451
  WF centre and spread    8  (  0.082320, -1.989335,  0.128477 )    21.98393048
  Sum of centres and spreads ( 10.149274,  2.809278, 21.248877 )   132.81534400
 
    490    -0.227E-02     1.9604300446      132.8153440009      18.17  <-- CONV
        O_D=      8.7771872 O_OD=     59.2490781 O_TOT=    132.8153440 <-- SPRD
 Delta: O_D= -0.1749658E-02 O_OD= -0.5217648E-03 O_TOT= -0.2271423E-02 <-- DLTA
 ------------------------------------------------------------------------------

 done

 Cycle:    500
  WF centre and spread    1  (  1.593437,  0.116876,  2.444530 )    12.71286007
  WF centre and spread    2  (  1.678950,  0.031296,  3.089829 )    10.01661513
  WF centre and spread    3  (  1.636207,  0.600037,  2.647691 )    16.21559819
  WF centre and spread    4  (  1.717079, -0.105862,  2.516675 )    12.95747567
  WF centre and spread    5  (  0.837497,  1.073559,  1.414487 )    18.43706922
  WF centre and spread    6  (  0.916542,  1.262805,  4.343707 )    23.13938791
  WF centre and spread    7  (  1.687330,  1.820945,  4.665205 )    17.31822834
  WF centre and spread    8  (  0.080622, -1.989535,  0.129284 )    21.97254511
  Sum of centres and spreads ( 10.147664,  2.810122, 21.251407 )   132.76977964
 
    500    -0.168E-02     2.8252215098      132.7697796352      18.54  <-- CONV
        O_D=      8.7680423 O_OD=     59.2126586 O_TOT=    132.7697796 <-- SPRD
 Delta: O_D=  0.5128133E-03 O_OD= -0.2191432E-02 O_TOT= -0.1678619E-02 <-- DLTA
 ------------------------------------------------------------------------------

 done

 Final State
  WF centre and spread    1  (  1.593437,  0.116876,  2.444530 )    12.71286007
  WF centre and spread    2  (  1.678950,  0.031296,  3.089829 )    10.01661513
  WF centre and spread    3  (  1.636207,  0.600037,  2.647691 )    16.21559819
  WF centre and spread    4  (  1.717079, -0.105862,  2.516675 )    12.95747567
  WF centre and spread    5  (  0.837497,  1.073559,  1.414487 )    18.43706922
  WF centre and spread    6  (  0.916542,  1.262805,  4.343707 )    23.13938791
  WF centre and spread    7  (  1.687330,  1.820945,  4.665205 )    17.31822834
  WF centre and spread    8  (  0.080622, -1.989535,  0.129284 )    21.97254511
  Sum of centres and spreads ( 10.147664,  2.810122, 21.251407 )   132.76977964
 
         Spreads (Ang^2)       Omega I      =    64.789078701
        ================       Omega D      =     8.768042348
                               Omega OD     =    59.212658586
    Final Spread (Ang^2)       Omega Total  =   132.769779635
 ------------------------------------------------------------------------------
 Time for wannierise           15.059 (sec)

 done

 *---------------------------------------------------------------------------*
 |                               PLOTTING                                    |
 *---------------------------------------------------------------------------*
 
 
 Calculating interpolated band-structure
 
 Time to calculate interpolated band structure       1.188 (sec)
 
      Wannier Function Num:    1       Maximum Im/Re Ratio =   27.625660
      Wannier Function Num:    2       Maximum Im/Re Ratio =   27.168819
      Wannier Function Num:    3       Maximum Im/Re Ratio =   17.189892
      Wannier Function Num:    4       Maximum Im/Re Ratio =   30.572486
      Wannier Function Num:    5       Maximum Im/Re Ratio =   22.492378
      Wannier Function Num:    6       Maximum Im/Re Ratio =   37.633854
      Wannier Function Num:    7       Maximum Im/Re Ratio =   27.397417
      Wannier Function Num:    8       Maximum Im/Re Ratio =   92.663010
  
 Time for plotting            305.697 (sec)
 Total Execution Time         321.226 (sec)

 *===========================================================================*
 |                             TIMING INFORMATION                            |
 *===========================================================================*
 |    Tag                                                Ncalls      Time (s)|
 |---------------------------------------------------------------------------|
 |kmesh: get                                        :         1         0.204|
 |overlap: allocate                                 :         1         0.003|
 |overlap: read                                     :         1         0.228|
 |wann: main                                        :         1        15.059|
 |plot: main                                        :         1       305.697|
 *---------------------------------------------------------------------------*
 
 All done: wannier90 exiting
