
     Program PWSCF v.7.2 starts on 19Feb2024 at 11:37:36 

     This program is part of the open-source Quantum ESPRESSO suite
     for quantum simulation of materials; please cite
         "P. Giannozzi et al., J. Phys.:Condens. Matter 21 395502 (2009);
         "P. Giannozzi et al., J. Phys.:Condens. Matter 29 465901 (2017);
         "P. Giannozzi et al., J. Chem. Phys. 152 154105 (2020);
          URL http://www.quantum-espresso.org", 
     in publications or presentations arising from this work. More details at
     http://www.quantum-espresso.org/quote

     Parallel version (MPI), running on     1 processors

     MPI processes distributed on     1 nodes
     161528 MiB available memory on the printing compute node when the environment starts
 
     Waiting for input...
     Reading input from standard input

     Current dimensions of program PWSCF are:
     Max number of different atomic species (ntypx) = 10
     Max number of k-points (npk) =  40000
     Max angular momentum in pseudopotentials (lmaxx) =  4

     Atomic positions and unit cell read from directory:
     ./out/NbP_bulk.save/
     Atomic positions from file used, from input discarded
 
     file Nb.pbesol-spn-kjpaw_psl.0.3.0.UPF: wavefunction(s)  4S 4P renormalized
     Message from routine setup:
     using ibrav=0 with symmetry is DISCOURAGED, use correct ibrav instead
 
     Subspace diagonalization in iterative solution of the eigenvalue problem:
     a serial algorithm will be used

 
     G-vector sticks info
     --------------------
     sticks:   dense  smooth     PW     G-vecs:    dense   smooth      PW
     Sum        1033     509    197                41977    14855    3655
 
     Using Slab Decomposition
 


     bravais-lattice index     =            0
     lattice parameter (alat)  =       6.3427  a.u.
     unit-cell volume          =     434.7255 (a.u.)^3
     number of atoms/cell      =            4
     number of atomic types    =            2
     number of electrons       =        36.00
     number of Kohn-Sham states=           22
     kinetic-energy cutoff     =      40.0000  Ry
     charge density cutoff     =     320.0000  Ry
     Exchange-correlation= PBESOL
                           (   1   4  10   8   0   0   0)

     celldm(1)=   6.342749  celldm(2)=   0.000000  celldm(3)=   0.000000
     celldm(4)=   0.000000  celldm(5)=   0.000000  celldm(6)=   0.000000

     crystal axes: (cart. coord. in units of alat)
               a(1) = (   1.000000   0.000000   0.000000 )  
               a(2) = (   0.000000   1.000000   0.000000 )  
               a(3) = (  -0.500000  -0.500000   1.703659 )  

     reciprocal axes: (cart. coord. in units 2 pi/alat)
               b(1) = (  1.000000  0.000000  0.293486 )  
               b(2) = (  0.000000  1.000000  0.293486 )  
               b(3) = (  0.000000  0.000000  0.586972 )  


     PseudoPot. # 1 for Nb read from file:
     ./pseudo/Nb.pbesol-spn-kjpaw_psl.0.3.0.UPF
     MD5 check sum: 3501bca1474143575298708b2d32ca28
     Pseudo is Projector augmented-wave + core cor, Zval = 13.0
     Generated using "atomic" code by A. Dal Corso  v.6.0 svn rev. 13079
     Shape of augmentation charge: PSQ
     Using radial grid of 1227 points,  6 beta functions with: 
                l(1) =   0
                l(2) =   0
                l(3) =   1
                l(4) =   1
                l(5) =   2
                l(6) =   2
     Q(r) pseudized with 0 coefficients 


     PseudoPot. # 2 for P  read from file:
     ./pseudo/P.pbesol-n-rrkjus_psl.1.0.0.UPF
     MD5 check sum: bbb94b1b16383820d6a769669b5d42db
     Pseudo is Ultrasoft + core correction, Zval =  5.0
     Generated using "atomic" code by A. Dal Corso  v.6.0 svn rev. 13079
     Using radial grid of 1147 points,  6 beta functions with: 
                l(1) =   0
                l(2) =   0
                l(3) =   1
                l(4) =   1
                l(5) =   2
                l(6) =   2
     Q(r) pseudized with 0 coefficients 


     atomic species   valence    mass     pseudopotential
        Nb            13.00    92.90638     Nb( 1.00)
        P              5.00    30.97376     P ( 1.00)

      8 Sym. Ops. (no inversion) found ( 4 have fractional translation)


                                    s                        frac. trans.

      isym =  1     identity                                     

 cryst.   s( 1) = (     1          0          0      )
                  (     0          1          0      )
                  (     0          0          1      )

 cart.    s( 1) = (  1.0000000  0.0000000  0.0000000 )
                  (  0.0000000  1.0000000  0.0000000 )
                  (  0.0000000  0.0000000  1.0000000 )


      isym =  2     180 deg rotation - cart. axis [0,0,1]        

 cryst.   s( 2) = (    -1          0          0      )
                  (     0         -1          0      )
                  (     1          1          1      )

 cart.    s( 2) = ( -1.0000000  0.0000000  0.0000000 )
                  (  0.0000000 -1.0000000  0.0000000 )
                  (  0.0000000  0.0000000  1.0000000 )


      isym =  3      90 deg rotation - cart. axis [0,0,-1]       

 cryst.   s( 3) = (     0         -1          0      )    f =( -0.2500000 )
                  (     1          0          0      )       (  0.2500000 )
                  (     0          1          1      )       ( -0.5000000 )

 cart.    s( 3) = (  0.0000000  1.0000000  0.0000000 )    f =(  0.0000000 )
                  ( -1.0000000  0.0000000  0.0000000 )       (  0.5000000 )
                  (  0.0000000  0.0000000  1.0000000 )       ( -0.8518294 )


      isym =  4      90 deg rotation - cart. axis [0,0,1]        

 cryst.   s( 4) = (     0          1          0      )    f =( -0.2500000 )
                  (    -1          0          0      )       (  0.2500000 )
                  (     1          0          1      )       ( -0.5000000 )

 cart.    s( 4) = (  0.0000000 -1.0000000  0.0000000 )    f =(  0.0000000 )
                  (  1.0000000  0.0000000  0.0000000 )       (  0.5000000 )
                  (  0.0000000  0.0000000  1.0000000 )       ( -0.8518294 )


      isym =  5     inv. 180 deg rotation - cart. axis [0,1,0]   

 cryst.   s( 5) = (     1          0          0      )
                  (     0         -1          0      )
                  (     0          1          1      )

 cart.    s( 5) = (  1.0000000  0.0000000  0.0000000 )
                  (  0.0000000 -1.0000000  0.0000000 )
                  (  0.0000000  0.0000000  1.0000000 )


      isym =  6     inv. 180 deg rotation - cart. axis [1,0,0]   

 cryst.   s( 6) = (    -1          0          0      )
                  (     0          1          0      )
                  (     1          0          1      )

 cart.    s( 6) = ( -1.0000000  0.0000000  0.0000000 )
                  (  0.0000000  1.0000000  0.0000000 )
                  (  0.0000000  0.0000000  1.0000000 )


      isym =  7     inv. 180 deg rotation - cart. axis [1,1,0]   

 cryst.   s( 7) = (     0         -1          0      )    f =( -0.2500000 )
                  (    -1          0          0      )       (  0.2500000 )
                  (     1          1          1      )       ( -0.5000000 )

 cart.    s( 7) = (  0.0000000 -1.0000000  0.0000000 )    f =(  0.0000000 )
                  ( -1.0000000  0.0000000  0.0000000 )       (  0.5000000 )
                  (  0.0000000  0.0000000  1.0000000 )       ( -0.8518294 )


      isym =  8     inv. 180 deg rotation - cart. axis [1,-1,0]  

 cryst.   s( 8) = (     0          1          0      )    f =( -0.2500000 )
                  (     1          0          0      )       (  0.2500000 )
                  (     0          0          1      )       ( -0.5000000 )

 cart.    s( 8) = (  0.0000000  1.0000000  0.0000000 )    f =(  0.0000000 )
                  (  1.0000000  0.0000000  0.0000000 )       (  0.5000000 )
                  (  0.0000000  0.0000000  1.0000000 )       ( -0.8518294 )


   Cartesian axes

     site n.     atom                  positions (alat units)
         1           Nb  tau(   1) = (   0.0000000   0.0000000   1.7033964  )
         2           Nb  tau(   2) = (   0.5000000   0.0000000   0.8515670  )
         3           P   tau(   3) = (   0.5000000   0.5000000   1.4223745  )
         4           P   tau(   4) = (   0.0000000   0.5000000   0.5705451  )

   Crystallographic axes

     site n.     atom                  positions (cryst. coord.)
         1           Nb  tau(   1) = (  0.4999230  0.4999230  0.9998460  )
         2           Nb  tau(   2) = (  0.7499230  0.2499230  0.4998460  )
         3           P   tau(   3) = (  0.9174470  0.9174470  0.8348940  )
         4           P   tau(   4) = (  0.1674470  0.6674470  0.3348940  )

     number of k points=   500  Marzari-Vanderbilt smearing, width (Ry)=  0.0073
                       cart. coord. in units 2pi/alat
        k(    1) = (   0.0000000   0.0000000   0.0000000), wk =   0.0040000
        k(    2) = (   0.0000000   0.0000000   0.1173944), wk =   0.0040000
        k(    3) = (   0.0000000   0.0000000   0.2347888), wk =   0.0040000
        k(    4) = (   0.0000000   0.0000000   0.3521832), wk =   0.0040000
        k(    5) = (   0.0000000   0.0000000   0.4695776), wk =   0.0040000
        k(    6) = (   0.0000000   0.1000000   0.0293486), wk =   0.0040000
        k(    7) = (   0.0000000   0.1000000   0.1467430), wk =   0.0040000
        k(    8) = (   0.0000000   0.1000000   0.2641374), wk =   0.0040000
        k(    9) = (   0.0000000   0.1000000   0.3815318), wk =   0.0040000
        k(   10) = (   0.0000000   0.1000000   0.4989262), wk =   0.0040000
        k(   11) = (   0.0000000   0.2000000   0.0586972), wk =   0.0040000
        k(   12) = (   0.0000000   0.2000000   0.1760916), wk =   0.0040000
        k(   13) = (   0.0000000   0.2000000   0.2934860), wk =   0.0040000
        k(   14) = (   0.0000000   0.2000000   0.4108804), wk =   0.0040000
        k(   15) = (   0.0000000   0.2000000   0.5282748), wk =   0.0040000
        k(   16) = (   0.0000000   0.3000000   0.0880458), wk =   0.0040000
        k(   17) = (   0.0000000   0.3000000   0.2054402), wk =   0.0040000
        k(   18) = (   0.0000000   0.3000000   0.3228346), wk =   0.0040000
        k(   19) = (   0.0000000   0.3000000   0.4402290), wk =   0.0040000
        k(   20) = (   0.0000000   0.3000000   0.5576234), wk =   0.0040000
        k(   21) = (   0.0000000   0.4000000   0.1173944), wk =   0.0040000
        k(   22) = (   0.0000000   0.4000000   0.2347888), wk =   0.0040000
        k(   23) = (   0.0000000   0.4000000   0.3521832), wk =   0.0040000
        k(   24) = (   0.0000000   0.4000000   0.4695776), wk =   0.0040000
        k(   25) = (   0.0000000   0.4000000   0.5869720), wk =   0.0040000
        k(   26) = (   0.0000000   0.5000000   0.1467430), wk =   0.0040000
        k(   27) = (   0.0000000   0.5000000   0.2641374), wk =   0.0040000
        k(   28) = (   0.0000000   0.5000000   0.3815318), wk =   0.0040000
        k(   29) = (   0.0000000   0.5000000   0.4989262), wk =   0.0040000
        k(   30) = (   0.0000000   0.5000000   0.6163206), wk =   0.0040000
        k(   31) = (   0.0000000   0.6000000   0.1760916), wk =   0.0040000
        k(   32) = (   0.0000000   0.6000000   0.2934860), wk =   0.0040000
        k(   33) = (   0.0000000   0.6000000   0.4108804), wk =   0.0040000
        k(   34) = (   0.0000000   0.6000000   0.5282748), wk =   0.0040000
        k(   35) = (   0.0000000   0.6000000   0.6456692), wk =   0.0040000
        k(   36) = (   0.0000000   0.7000000   0.2054402), wk =   0.0040000
        k(   37) = (   0.0000000   0.7000000   0.3228346), wk =   0.0040000
        k(   38) = (   0.0000000   0.7000000   0.4402290), wk =   0.0040000
        k(   39) = (   0.0000000   0.7000000   0.5576234), wk =   0.0040000
        k(   40) = (   0.0000000   0.7000000   0.6750178), wk =   0.0040000
        k(   41) = (   0.0000000   0.8000000   0.2347888), wk =   0.0040000
        k(   42) = (   0.0000000   0.8000000   0.3521832), wk =   0.0040000
        k(   43) = (   0.0000000   0.8000000   0.4695776), wk =   0.0040000
        k(   44) = (   0.0000000   0.8000000   0.5869720), wk =   0.0040000
        k(   45) = (   0.0000000   0.8000000   0.7043664), wk =   0.0040000
        k(   46) = (   0.0000000   0.9000000   0.2641374), wk =   0.0040000
        k(   47) = (   0.0000000   0.9000000   0.3815318), wk =   0.0040000
        k(   48) = (   0.0000000   0.9000000   0.4989262), wk =   0.0040000
        k(   49) = (   0.0000000   0.9000000   0.6163206), wk =   0.0040000
        k(   50) = (   0.0000000   0.9000000   0.7337150), wk =   0.0040000
        k(   51) = (   0.1000000   0.0000000   0.0293486), wk =   0.0040000
        k(   52) = (   0.1000000   0.0000000   0.1467430), wk =   0.0040000
        k(   53) = (   0.1000000   0.0000000   0.2641374), wk =   0.0040000
        k(   54) = (   0.1000000   0.0000000   0.3815318), wk =   0.0040000
        k(   55) = (   0.1000000   0.0000000   0.4989262), wk =   0.0040000
        k(   56) = (   0.1000000   0.1000000   0.0586972), wk =   0.0040000
        k(   57) = (   0.1000000   0.1000000   0.1760916), wk =   0.0040000
        k(   58) = (   0.1000000   0.1000000   0.2934860), wk =   0.0040000
        k(   59) = (   0.1000000   0.1000000   0.4108804), wk =   0.0040000
        k(   60) = (   0.1000000   0.1000000   0.5282748), wk =   0.0040000
        k(   61) = (   0.1000000   0.2000000   0.0880458), wk =   0.0040000
        k(   62) = (   0.1000000   0.2000000   0.2054402), wk =   0.0040000
        k(   63) = (   0.1000000   0.2000000   0.3228346), wk =   0.0040000
        k(   64) = (   0.1000000   0.2000000   0.4402290), wk =   0.0040000
        k(   65) = (   0.1000000   0.2000000   0.5576234), wk =   0.0040000
        k(   66) = (   0.1000000   0.3000000   0.1173944), wk =   0.0040000
        k(   67) = (   0.1000000   0.3000000   0.2347888), wk =   0.0040000
        k(   68) = (   0.1000000   0.3000000   0.3521832), wk =   0.0040000
        k(   69) = (   0.1000000   0.3000000   0.4695776), wk =   0.0040000
        k(   70) = (   0.1000000   0.3000000   0.5869720), wk =   0.0040000
        k(   71) = (   0.1000000   0.4000000   0.1467430), wk =   0.0040000
        k(   72) = (   0.1000000   0.4000000   0.2641374), wk =   0.0040000
        k(   73) = (   0.1000000   0.4000000   0.3815318), wk =   0.0040000
        k(   74) = (   0.1000000   0.4000000   0.4989262), wk =   0.0040000
        k(   75) = (   0.1000000   0.4000000   0.6163206), wk =   0.0040000
        k(   76) = (   0.1000000   0.5000000   0.1760916), wk =   0.0040000
        k(   77) = (   0.1000000   0.5000000   0.2934860), wk =   0.0040000
        k(   78) = (   0.1000000   0.5000000   0.4108804), wk =   0.0040000
        k(   79) = (   0.1000000   0.5000000   0.5282748), wk =   0.0040000
        k(   80) = (   0.1000000   0.5000000   0.6456692), wk =   0.0040000
        k(   81) = (   0.1000000   0.6000000   0.2054402), wk =   0.0040000
        k(   82) = (   0.1000000   0.6000000   0.3228346), wk =   0.0040000
        k(   83) = (   0.1000000   0.6000000   0.4402290), wk =   0.0040000
        k(   84) = (   0.1000000   0.6000000   0.5576234), wk =   0.0040000
        k(   85) = (   0.1000000   0.6000000   0.6750178), wk =   0.0040000
        k(   86) = (   0.1000000   0.7000000   0.2347888), wk =   0.0040000
        k(   87) = (   0.1000000   0.7000000   0.3521832), wk =   0.0040000
        k(   88) = (   0.1000000   0.7000000   0.4695776), wk =   0.0040000
        k(   89) = (   0.1000000   0.7000000   0.5869720), wk =   0.0040000
        k(   90) = (   0.1000000   0.7000000   0.7043664), wk =   0.0040000
        k(   91) = (   0.1000000   0.8000000   0.2641374), wk =   0.0040000
        k(   92) = (   0.1000000   0.8000000   0.3815318), wk =   0.0040000
        k(   93) = (   0.1000000   0.8000000   0.4989262), wk =   0.0040000
        k(   94) = (   0.1000000   0.8000000   0.6163206), wk =   0.0040000
        k(   95) = (   0.1000000   0.8000000   0.7337150), wk =   0.0040000
        k(   96) = (   0.1000000   0.9000000   0.2934860), wk =   0.0040000
        k(   97) = (   0.1000000   0.9000000   0.4108804), wk =   0.0040000
        k(   98) = (   0.1000000   0.9000000   0.5282748), wk =   0.0040000
        k(   99) = (   0.1000000   0.9000000   0.6456692), wk =   0.0040000
        k(  100) = (   0.1000000   0.9000000   0.7630636), wk =   0.0040000
        k(  101) = (   0.2000000   0.0000000   0.0586972), wk =   0.0040000
        k(  102) = (   0.2000000   0.0000000   0.1760916), wk =   0.0040000
        k(  103) = (   0.2000000   0.0000000   0.2934860), wk =   0.0040000
        k(  104) = (   0.2000000   0.0000000   0.4108804), wk =   0.0040000
        k(  105) = (   0.2000000   0.0000000   0.5282748), wk =   0.0040000
        k(  106) = (   0.2000000   0.1000000   0.0880458), wk =   0.0040000
        k(  107) = (   0.2000000   0.1000000   0.2054402), wk =   0.0040000
        k(  108) = (   0.2000000   0.1000000   0.3228346), wk =   0.0040000
        k(  109) = (   0.2000000   0.1000000   0.4402290), wk =   0.0040000
        k(  110) = (   0.2000000   0.1000000   0.5576234), wk =   0.0040000
        k(  111) = (   0.2000000   0.2000000   0.1173944), wk =   0.0040000
        k(  112) = (   0.2000000   0.2000000   0.2347888), wk =   0.0040000
        k(  113) = (   0.2000000   0.2000000   0.3521832), wk =   0.0040000
        k(  114) = (   0.2000000   0.2000000   0.4695776), wk =   0.0040000
        k(  115) = (   0.2000000   0.2000000   0.5869720), wk =   0.0040000
        k(  116) = (   0.2000000   0.3000000   0.1467430), wk =   0.0040000
        k(  117) = (   0.2000000   0.3000000   0.2641374), wk =   0.0040000
        k(  118) = (   0.2000000   0.3000000   0.3815318), wk =   0.0040000
        k(  119) = (   0.2000000   0.3000000   0.4989262), wk =   0.0040000
        k(  120) = (   0.2000000   0.3000000   0.6163206), wk =   0.0040000
        k(  121) = (   0.2000000   0.4000000   0.1760916), wk =   0.0040000
        k(  122) = (   0.2000000   0.4000000   0.2934860), wk =   0.0040000
        k(  123) = (   0.2000000   0.4000000   0.4108804), wk =   0.0040000
        k(  124) = (   0.2000000   0.4000000   0.5282748), wk =   0.0040000
        k(  125) = (   0.2000000   0.4000000   0.6456692), wk =   0.0040000
        k(  126) = (   0.2000000   0.5000000   0.2054402), wk =   0.0040000
        k(  127) = (   0.2000000   0.5000000   0.3228346), wk =   0.0040000
        k(  128) = (   0.2000000   0.5000000   0.4402290), wk =   0.0040000
        k(  129) = (   0.2000000   0.5000000   0.5576234), wk =   0.0040000
        k(  130) = (   0.2000000   0.5000000   0.6750178), wk =   0.0040000
        k(  131) = (   0.2000000   0.6000000   0.2347888), wk =   0.0040000
        k(  132) = (   0.2000000   0.6000000   0.3521832), wk =   0.0040000
        k(  133) = (   0.2000000   0.6000000   0.4695776), wk =   0.0040000
        k(  134) = (   0.2000000   0.6000000   0.5869720), wk =   0.0040000
        k(  135) = (   0.2000000   0.6000000   0.7043664), wk =   0.0040000
        k(  136) = (   0.2000000   0.7000000   0.2641374), wk =   0.0040000
        k(  137) = (   0.2000000   0.7000000   0.3815318), wk =   0.0040000
        k(  138) = (   0.2000000   0.7000000   0.4989262), wk =   0.0040000
        k(  139) = (   0.2000000   0.7000000   0.6163206), wk =   0.0040000
        k(  140) = (   0.2000000   0.7000000   0.7337150), wk =   0.0040000
        k(  141) = (   0.2000000   0.8000000   0.2934860), wk =   0.0040000
        k(  142) = (   0.2000000   0.8000000   0.4108804), wk =   0.0040000
        k(  143) = (   0.2000000   0.8000000   0.5282748), wk =   0.0040000
        k(  144) = (   0.2000000   0.8000000   0.6456692), wk =   0.0040000
        k(  145) = (   0.2000000   0.8000000   0.7630636), wk =   0.0040000
        k(  146) = (   0.2000000   0.9000000   0.3228346), wk =   0.0040000
        k(  147) = (   0.2000000   0.9000000   0.4402290), wk =   0.0040000
        k(  148) = (   0.2000000   0.9000000   0.5576234), wk =   0.0040000
        k(  149) = (   0.2000000   0.9000000   0.6750178), wk =   0.0040000
        k(  150) = (   0.2000000   0.9000000   0.7924122), wk =   0.0040000
        k(  151) = (   0.3000000   0.0000000   0.0880458), wk =   0.0040000
        k(  152) = (   0.3000000   0.0000000   0.2054402), wk =   0.0040000
        k(  153) = (   0.3000000   0.0000000   0.3228346), wk =   0.0040000
        k(  154) = (   0.3000000   0.0000000   0.4402290), wk =   0.0040000
        k(  155) = (   0.3000000   0.0000000   0.5576234), wk =   0.0040000
        k(  156) = (   0.3000000   0.1000000   0.1173944), wk =   0.0040000
        k(  157) = (   0.3000000   0.1000000   0.2347888), wk =   0.0040000
        k(  158) = (   0.3000000   0.1000000   0.3521832), wk =   0.0040000
        k(  159) = (   0.3000000   0.1000000   0.4695776), wk =   0.0040000
        k(  160) = (   0.3000000   0.1000000   0.5869720), wk =   0.0040000
        k(  161) = (   0.3000000   0.2000000   0.1467430), wk =   0.0040000
        k(  162) = (   0.3000000   0.2000000   0.2641374), wk =   0.0040000
        k(  163) = (   0.3000000   0.2000000   0.3815318), wk =   0.0040000
        k(  164) = (   0.3000000   0.2000000   0.4989262), wk =   0.0040000
        k(  165) = (   0.3000000   0.2000000   0.6163206), wk =   0.0040000
        k(  166) = (   0.3000000   0.3000000   0.1760916), wk =   0.0040000
        k(  167) = (   0.3000000   0.3000000   0.2934860), wk =   0.0040000
        k(  168) = (   0.3000000   0.3000000   0.4108804), wk =   0.0040000
        k(  169) = (   0.3000000   0.3000000   0.5282748), wk =   0.0040000
        k(  170) = (   0.3000000   0.3000000   0.6456692), wk =   0.0040000
        k(  171) = (   0.3000000   0.4000000   0.2054402), wk =   0.0040000
        k(  172) = (   0.3000000   0.4000000   0.3228346), wk =   0.0040000
        k(  173) = (   0.3000000   0.4000000   0.4402290), wk =   0.0040000
        k(  174) = (   0.3000000   0.4000000   0.5576234), wk =   0.0040000
        k(  175) = (   0.3000000   0.4000000   0.6750178), wk =   0.0040000
        k(  176) = (   0.3000000   0.5000000   0.2347888), wk =   0.0040000
        k(  177) = (   0.3000000   0.5000000   0.3521832), wk =   0.0040000
        k(  178) = (   0.3000000   0.5000000   0.4695776), wk =   0.0040000
        k(  179) = (   0.3000000   0.5000000   0.5869720), wk =   0.0040000
        k(  180) = (   0.3000000   0.5000000   0.7043664), wk =   0.0040000
        k(  181) = (   0.3000000   0.6000000   0.2641374), wk =   0.0040000
        k(  182) = (   0.3000000   0.6000000   0.3815318), wk =   0.0040000
        k(  183) = (   0.3000000   0.6000000   0.4989262), wk =   0.0040000
        k(  184) = (   0.3000000   0.6000000   0.6163206), wk =   0.0040000
        k(  185) = (   0.3000000   0.6000000   0.7337150), wk =   0.0040000
        k(  186) = (   0.3000000   0.7000000   0.2934860), wk =   0.0040000
        k(  187) = (   0.3000000   0.7000000   0.4108804), wk =   0.0040000
        k(  188) = (   0.3000000   0.7000000   0.5282748), wk =   0.0040000
        k(  189) = (   0.3000000   0.7000000   0.6456692), wk =   0.0040000
        k(  190) = (   0.3000000   0.7000000   0.7630636), wk =   0.0040000
        k(  191) = (   0.3000000   0.8000000   0.3228346), wk =   0.0040000
        k(  192) = (   0.3000000   0.8000000   0.4402290), wk =   0.0040000
        k(  193) = (   0.3000000   0.8000000   0.5576234), wk =   0.0040000
        k(  194) = (   0.3000000   0.8000000   0.6750178), wk =   0.0040000
        k(  195) = (   0.3000000   0.8000000   0.7924122), wk =   0.0040000
        k(  196) = (   0.3000000   0.9000000   0.3521832), wk =   0.0040000
        k(  197) = (   0.3000000   0.9000000   0.4695776), wk =   0.0040000
        k(  198) = (   0.3000000   0.9000000   0.5869720), wk =   0.0040000
        k(  199) = (   0.3000000   0.9000000   0.7043664), wk =   0.0040000
        k(  200) = (   0.3000000   0.9000000   0.8217608), wk =   0.0040000
        k(  201) = (   0.4000000   0.0000000   0.1173944), wk =   0.0040000
        k(  202) = (   0.4000000   0.0000000   0.2347888), wk =   0.0040000
        k(  203) = (   0.4000000   0.0000000   0.3521832), wk =   0.0040000
        k(  204) = (   0.4000000   0.0000000   0.4695776), wk =   0.0040000
        k(  205) = (   0.4000000   0.0000000   0.5869720), wk =   0.0040000
        k(  206) = (   0.4000000   0.1000000   0.1467430), wk =   0.0040000
        k(  207) = (   0.4000000   0.1000000   0.2641374), wk =   0.0040000
        k(  208) = (   0.4000000   0.1000000   0.3815318), wk =   0.0040000
        k(  209) = (   0.4000000   0.1000000   0.4989262), wk =   0.0040000
        k(  210) = (   0.4000000   0.1000000   0.6163206), wk =   0.0040000
        k(  211) = (   0.4000000   0.2000000   0.1760916), wk =   0.0040000
        k(  212) = (   0.4000000   0.2000000   0.2934860), wk =   0.0040000
        k(  213) = (   0.4000000   0.2000000   0.4108804), wk =   0.0040000
        k(  214) = (   0.4000000   0.2000000   0.5282748), wk =   0.0040000
        k(  215) = (   0.4000000   0.2000000   0.6456692), wk =   0.0040000
        k(  216) = (   0.4000000   0.3000000   0.2054402), wk =   0.0040000
        k(  217) = (   0.4000000   0.3000000   0.3228346), wk =   0.0040000
        k(  218) = (   0.4000000   0.3000000   0.4402290), wk =   0.0040000
        k(  219) = (   0.4000000   0.3000000   0.5576234), wk =   0.0040000
        k(  220) = (   0.4000000   0.3000000   0.6750178), wk =   0.0040000
        k(  221) = (   0.4000000   0.4000000   0.2347888), wk =   0.0040000
        k(  222) = (   0.4000000   0.4000000   0.3521832), wk =   0.0040000
        k(  223) = (   0.4000000   0.4000000   0.4695776), wk =   0.0040000
        k(  224) = (   0.4000000   0.4000000   0.5869720), wk =   0.0040000
        k(  225) = (   0.4000000   0.4000000   0.7043664), wk =   0.0040000
        k(  226) = (   0.4000000   0.5000000   0.2641374), wk =   0.0040000
        k(  227) = (   0.4000000   0.5000000   0.3815318), wk =   0.0040000
        k(  228) = (   0.4000000   0.5000000   0.4989262), wk =   0.0040000
        k(  229) = (   0.4000000   0.5000000   0.6163206), wk =   0.0040000
        k(  230) = (   0.4000000   0.5000000   0.7337150), wk =   0.0040000
        k(  231) = (   0.4000000   0.6000000   0.2934860), wk =   0.0040000
        k(  232) = (   0.4000000   0.6000000   0.4108804), wk =   0.0040000
        k(  233) = (   0.4000000   0.6000000   0.5282748), wk =   0.0040000
        k(  234) = (   0.4000000   0.6000000   0.6456692), wk =   0.0040000
        k(  235) = (   0.4000000   0.6000000   0.7630636), wk =   0.0040000
        k(  236) = (   0.4000000   0.7000000   0.3228346), wk =   0.0040000
        k(  237) = (   0.4000000   0.7000000   0.4402290), wk =   0.0040000
        k(  238) = (   0.4000000   0.7000000   0.5576234), wk =   0.0040000
        k(  239) = (   0.4000000   0.7000000   0.6750178), wk =   0.0040000
        k(  240) = (   0.4000000   0.7000000   0.7924122), wk =   0.0040000
        k(  241) = (   0.4000000   0.8000000   0.3521832), wk =   0.0040000
        k(  242) = (   0.4000000   0.8000000   0.4695776), wk =   0.0040000
        k(  243) = (   0.4000000   0.8000000   0.5869720), wk =   0.0040000
        k(  244) = (   0.4000000   0.8000000   0.7043664), wk =   0.0040000
        k(  245) = (   0.4000000   0.8000000   0.8217608), wk =   0.0040000
        k(  246) = (   0.4000000   0.9000000   0.3815318), wk =   0.0040000
        k(  247) = (   0.4000000   0.9000000   0.4989262), wk =   0.0040000
        k(  248) = (   0.4000000   0.9000000   0.6163206), wk =   0.0040000
        k(  249) = (   0.4000000   0.9000000   0.7337150), wk =   0.0040000
        k(  250) = (   0.4000000   0.9000000   0.8511094), wk =   0.0040000
        k(  251) = (   0.5000000   0.0000000   0.1467430), wk =   0.0040000
        k(  252) = (   0.5000000   0.0000000   0.2641374), wk =   0.0040000
        k(  253) = (   0.5000000   0.0000000   0.3815318), wk =   0.0040000
        k(  254) = (   0.5000000   0.0000000   0.4989262), wk =   0.0040000
        k(  255) = (   0.5000000   0.0000000   0.6163206), wk =   0.0040000
        k(  256) = (   0.5000000   0.1000000   0.1760916), wk =   0.0040000
        k(  257) = (   0.5000000   0.1000000   0.2934860), wk =   0.0040000
        k(  258) = (   0.5000000   0.1000000   0.4108804), wk =   0.0040000
        k(  259) = (   0.5000000   0.1000000   0.5282748), wk =   0.0040000
        k(  260) = (   0.5000000   0.1000000   0.6456692), wk =   0.0040000
        k(  261) = (   0.5000000   0.2000000   0.2054402), wk =   0.0040000
        k(  262) = (   0.5000000   0.2000000   0.3228346), wk =   0.0040000
        k(  263) = (   0.5000000   0.2000000   0.4402290), wk =   0.0040000
        k(  264) = (   0.5000000   0.2000000   0.5576234), wk =   0.0040000
        k(  265) = (   0.5000000   0.2000000   0.6750178), wk =   0.0040000
        k(  266) = (   0.5000000   0.3000000   0.2347888), wk =   0.0040000
        k(  267) = (   0.5000000   0.3000000   0.3521832), wk =   0.0040000
        k(  268) = (   0.5000000   0.3000000   0.4695776), wk =   0.0040000
        k(  269) = (   0.5000000   0.3000000   0.5869720), wk =   0.0040000
        k(  270) = (   0.5000000   0.3000000   0.7043664), wk =   0.0040000
        k(  271) = (   0.5000000   0.4000000   0.2641374), wk =   0.0040000
        k(  272) = (   0.5000000   0.4000000   0.3815318), wk =   0.0040000
        k(  273) = (   0.5000000   0.4000000   0.4989262), wk =   0.0040000
        k(  274) = (   0.5000000   0.4000000   0.6163206), wk =   0.0040000
        k(  275) = (   0.5000000   0.4000000   0.7337150), wk =   0.0040000
        k(  276) = (   0.5000000   0.5000000   0.2934860), wk =   0.0040000
        k(  277) = (   0.5000000   0.5000000   0.4108804), wk =   0.0040000
        k(  278) = (   0.5000000   0.5000000   0.5282748), wk =   0.0040000
        k(  279) = (   0.5000000   0.5000000   0.6456692), wk =   0.0040000
        k(  280) = (   0.5000000   0.5000000   0.7630636), wk =   0.0040000
        k(  281) = (   0.5000000   0.6000000   0.3228346), wk =   0.0040000
        k(  282) = (   0.5000000   0.6000000   0.4402290), wk =   0.0040000
        k(  283) = (   0.5000000   0.6000000   0.5576234), wk =   0.0040000
        k(  284) = (   0.5000000   0.6000000   0.6750178), wk =   0.0040000
        k(  285) = (   0.5000000   0.6000000   0.7924122), wk =   0.0040000
        k(  286) = (   0.5000000   0.7000000   0.3521832), wk =   0.0040000
        k(  287) = (   0.5000000   0.7000000   0.4695776), wk =   0.0040000
        k(  288) = (   0.5000000   0.7000000   0.5869720), wk =   0.0040000
        k(  289) = (   0.5000000   0.7000000   0.7043664), wk =   0.0040000
        k(  290) = (   0.5000000   0.7000000   0.8217608), wk =   0.0040000
        k(  291) = (   0.5000000   0.8000000   0.3815318), wk =   0.0040000
        k(  292) = (   0.5000000   0.8000000   0.4989262), wk =   0.0040000
        k(  293) = (   0.5000000   0.8000000   0.6163206), wk =   0.0040000
        k(  294) = (   0.5000000   0.8000000   0.7337150), wk =   0.0040000
        k(  295) = (   0.5000000   0.8000000   0.8511094), wk =   0.0040000
        k(  296) = (   0.5000000   0.9000000   0.4108804), wk =   0.0040000
        k(  297) = (   0.5000000   0.9000000   0.5282748), wk =   0.0040000
        k(  298) = (   0.5000000   0.9000000   0.6456692), wk =   0.0040000
        k(  299) = (   0.5000000   0.9000000   0.7630636), wk =   0.0040000
        k(  300) = (   0.5000000   0.9000000   0.8804580), wk =   0.0040000
        k(  301) = (   0.6000000   0.0000000   0.1760916), wk =   0.0040000
        k(  302) = (   0.6000000   0.0000000   0.2934860), wk =   0.0040000
        k(  303) = (   0.6000000   0.0000000   0.4108804), wk =   0.0040000
        k(  304) = (   0.6000000   0.0000000   0.5282748), wk =   0.0040000
        k(  305) = (   0.6000000   0.0000000   0.6456692), wk =   0.0040000
        k(  306) = (   0.6000000   0.1000000   0.2054402), wk =   0.0040000
        k(  307) = (   0.6000000   0.1000000   0.3228346), wk =   0.0040000
        k(  308) = (   0.6000000   0.1000000   0.4402290), wk =   0.0040000
        k(  309) = (   0.6000000   0.1000000   0.5576234), wk =   0.0040000
        k(  310) = (   0.6000000   0.1000000   0.6750178), wk =   0.0040000
        k(  311) = (   0.6000000   0.2000000   0.2347888), wk =   0.0040000
        k(  312) = (   0.6000000   0.2000000   0.3521832), wk =   0.0040000
        k(  313) = (   0.6000000   0.2000000   0.4695776), wk =   0.0040000
        k(  314) = (   0.6000000   0.2000000   0.5869720), wk =   0.0040000
        k(  315) = (   0.6000000   0.2000000   0.7043664), wk =   0.0040000
        k(  316) = (   0.6000000   0.3000000   0.2641374), wk =   0.0040000
        k(  317) = (   0.6000000   0.3000000   0.3815318), wk =   0.0040000
        k(  318) = (   0.6000000   0.3000000   0.4989262), wk =   0.0040000
        k(  319) = (   0.6000000   0.3000000   0.6163206), wk =   0.0040000
        k(  320) = (   0.6000000   0.3000000   0.7337150), wk =   0.0040000
        k(  321) = (   0.6000000   0.4000000   0.2934860), wk =   0.0040000
        k(  322) = (   0.6000000   0.4000000   0.4108804), wk =   0.0040000
        k(  323) = (   0.6000000   0.4000000   0.5282748), wk =   0.0040000
        k(  324) = (   0.6000000   0.4000000   0.6456692), wk =   0.0040000
        k(  325) = (   0.6000000   0.4000000   0.7630636), wk =   0.0040000
        k(  326) = (   0.6000000   0.5000000   0.3228346), wk =   0.0040000
        k(  327) = (   0.6000000   0.5000000   0.4402290), wk =   0.0040000
        k(  328) = (   0.6000000   0.5000000   0.5576234), wk =   0.0040000
        k(  329) = (   0.6000000   0.5000000   0.6750178), wk =   0.0040000
        k(  330) = (   0.6000000   0.5000000   0.7924122), wk =   0.0040000
        k(  331) = (   0.6000000   0.6000000   0.3521832), wk =   0.0040000
        k(  332) = (   0.6000000   0.6000000   0.4695776), wk =   0.0040000
        k(  333) = (   0.6000000   0.6000000   0.5869720), wk =   0.0040000
        k(  334) = (   0.6000000   0.6000000   0.7043664), wk =   0.0040000
        k(  335) = (   0.6000000   0.6000000   0.8217608), wk =   0.0040000
        k(  336) = (   0.6000000   0.7000000   0.3815318), wk =   0.0040000
        k(  337) = (   0.6000000   0.7000000   0.4989262), wk =   0.0040000
        k(  338) = (   0.6000000   0.7000000   0.6163206), wk =   0.0040000
        k(  339) = (   0.6000000   0.7000000   0.7337150), wk =   0.0040000
        k(  340) = (   0.6000000   0.7000000   0.8511094), wk =   0.0040000
        k(  341) = (   0.6000000   0.8000000   0.4108804), wk =   0.0040000
        k(  342) = (   0.6000000   0.8000000   0.5282748), wk =   0.0040000
        k(  343) = (   0.6000000   0.8000000   0.6456692), wk =   0.0040000
        k(  344) = (   0.6000000   0.8000000   0.7630636), wk =   0.0040000
        k(  345) = (   0.6000000   0.8000000   0.8804580), wk =   0.0040000
        k(  346) = (   0.6000000   0.9000000   0.4402290), wk =   0.0040000
        k(  347) = (   0.6000000   0.9000000   0.5576234), wk =   0.0040000
        k(  348) = (   0.6000000   0.9000000   0.6750178), wk =   0.0040000
        k(  349) = (   0.6000000   0.9000000   0.7924122), wk =   0.0040000
        k(  350) = (   0.6000000   0.9000000   0.9098066), wk =   0.0040000
        k(  351) = (   0.7000000   0.0000000   0.2054402), wk =   0.0040000
        k(  352) = (   0.7000000   0.0000000   0.3228346), wk =   0.0040000
        k(  353) = (   0.7000000   0.0000000   0.4402290), wk =   0.0040000
        k(  354) = (   0.7000000   0.0000000   0.5576234), wk =   0.0040000
        k(  355) = (   0.7000000   0.0000000   0.6750178), wk =   0.0040000
        k(  356) = (   0.7000000   0.1000000   0.2347888), wk =   0.0040000
        k(  357) = (   0.7000000   0.1000000   0.3521832), wk =   0.0040000
        k(  358) = (   0.7000000   0.1000000   0.4695776), wk =   0.0040000
        k(  359) = (   0.7000000   0.1000000   0.5869720), wk =   0.0040000
        k(  360) = (   0.7000000   0.1000000   0.7043664), wk =   0.0040000
        k(  361) = (   0.7000000   0.2000000   0.2641374), wk =   0.0040000
        k(  362) = (   0.7000000   0.2000000   0.3815318), wk =   0.0040000
        k(  363) = (   0.7000000   0.2000000   0.4989262), wk =   0.0040000
        k(  364) = (   0.7000000   0.2000000   0.6163206), wk =   0.0040000
        k(  365) = (   0.7000000   0.2000000   0.7337150), wk =   0.0040000
        k(  366) = (   0.7000000   0.3000000   0.2934860), wk =   0.0040000
        k(  367) = (   0.7000000   0.3000000   0.4108804), wk =   0.0040000
        k(  368) = (   0.7000000   0.3000000   0.5282748), wk =   0.0040000
        k(  369) = (   0.7000000   0.3000000   0.6456692), wk =   0.0040000
        k(  370) = (   0.7000000   0.3000000   0.7630636), wk =   0.0040000
        k(  371) = (   0.7000000   0.4000000   0.3228346), wk =   0.0040000
        k(  372) = (   0.7000000   0.4000000   0.4402290), wk =   0.0040000
        k(  373) = (   0.7000000   0.4000000   0.5576234), wk =   0.0040000
        k(  374) = (   0.7000000   0.4000000   0.6750178), wk =   0.0040000
        k(  375) = (   0.7000000   0.4000000   0.7924122), wk =   0.0040000
        k(  376) = (   0.7000000   0.5000000   0.3521832), wk =   0.0040000
        k(  377) = (   0.7000000   0.5000000   0.4695776), wk =   0.0040000
        k(  378) = (   0.7000000   0.5000000   0.5869720), wk =   0.0040000
        k(  379) = (   0.7000000   0.5000000   0.7043664), wk =   0.0040000
        k(  380) = (   0.7000000   0.5000000   0.8217608), wk =   0.0040000
        k(  381) = (   0.7000000   0.6000000   0.3815318), wk =   0.0040000
        k(  382) = (   0.7000000   0.6000000   0.4989262), wk =   0.0040000
        k(  383) = (   0.7000000   0.6000000   0.6163206), wk =   0.0040000
        k(  384) = (   0.7000000   0.6000000   0.7337150), wk =   0.0040000
        k(  385) = (   0.7000000   0.6000000   0.8511094), wk =   0.0040000
        k(  386) = (   0.7000000   0.7000000   0.4108804), wk =   0.0040000
        k(  387) = (   0.7000000   0.7000000   0.5282748), wk =   0.0040000
        k(  388) = (   0.7000000   0.7000000   0.6456692), wk =   0.0040000
        k(  389) = (   0.7000000   0.7000000   0.7630636), wk =   0.0040000
        k(  390) = (   0.7000000   0.7000000   0.8804580), wk =   0.0040000
        k(  391) = (   0.7000000   0.8000000   0.4402290), wk =   0.0040000
        k(  392) = (   0.7000000   0.8000000   0.5576234), wk =   0.0040000
        k(  393) = (   0.7000000   0.8000000   0.6750178), wk =   0.0040000
        k(  394) = (   0.7000000   0.8000000   0.7924122), wk =   0.0040000
        k(  395) = (   0.7000000   0.8000000   0.9098066), wk =   0.0040000
        k(  396) = (   0.7000000   0.9000000   0.4695776), wk =   0.0040000
        k(  397) = (   0.7000000   0.9000000   0.5869720), wk =   0.0040000
        k(  398) = (   0.7000000   0.9000000   0.7043664), wk =   0.0040000
        k(  399) = (   0.7000000   0.9000000   0.8217608), wk =   0.0040000
        k(  400) = (   0.7000000   0.9000000   0.9391552), wk =   0.0040000
        k(  401) = (   0.8000000   0.0000000   0.2347888), wk =   0.0040000
        k(  402) = (   0.8000000   0.0000000   0.3521832), wk =   0.0040000
        k(  403) = (   0.8000000   0.0000000   0.4695776), wk =   0.0040000
        k(  404) = (   0.8000000   0.0000000   0.5869720), wk =   0.0040000
        k(  405) = (   0.8000000   0.0000000   0.7043664), wk =   0.0040000
        k(  406) = (   0.8000000   0.1000000   0.2641374), wk =   0.0040000
        k(  407) = (   0.8000000   0.1000000   0.3815318), wk =   0.0040000
        k(  408) = (   0.8000000   0.1000000   0.4989262), wk =   0.0040000
        k(  409) = (   0.8000000   0.1000000   0.6163206), wk =   0.0040000
        k(  410) = (   0.8000000   0.1000000   0.7337150), wk =   0.0040000
        k(  411) = (   0.8000000   0.2000000   0.2934860), wk =   0.0040000
        k(  412) = (   0.8000000   0.2000000   0.4108804), wk =   0.0040000
        k(  413) = (   0.8000000   0.2000000   0.5282748), wk =   0.0040000
        k(  414) = (   0.8000000   0.2000000   0.6456692), wk =   0.0040000
        k(  415) = (   0.8000000   0.2000000   0.7630636), wk =   0.0040000
        k(  416) = (   0.8000000   0.3000000   0.3228346), wk =   0.0040000
        k(  417) = (   0.8000000   0.3000000   0.4402290), wk =   0.0040000
        k(  418) = (   0.8000000   0.3000000   0.5576234), wk =   0.0040000
        k(  419) = (   0.8000000   0.3000000   0.6750178), wk =   0.0040000
        k(  420) = (   0.8000000   0.3000000   0.7924122), wk =   0.0040000
        k(  421) = (   0.8000000   0.4000000   0.3521832), wk =   0.0040000
        k(  422) = (   0.8000000   0.4000000   0.4695776), wk =   0.0040000
        k(  423) = (   0.8000000   0.4000000   0.5869720), wk =   0.0040000
        k(  424) = (   0.8000000   0.4000000   0.7043664), wk =   0.0040000
        k(  425) = (   0.8000000   0.4000000   0.8217608), wk =   0.0040000
        k(  426) = (   0.8000000   0.5000000   0.3815318), wk =   0.0040000
        k(  427) = (   0.8000000   0.5000000   0.4989262), wk =   0.0040000
        k(  428) = (   0.8000000   0.5000000   0.6163206), wk =   0.0040000
        k(  429) = (   0.8000000   0.5000000   0.7337150), wk =   0.0040000
        k(  430) = (   0.8000000   0.5000000   0.8511094), wk =   0.0040000
        k(  431) = (   0.8000000   0.6000000   0.4108804), wk =   0.0040000
        k(  432) = (   0.8000000   0.6000000   0.5282748), wk =   0.0040000
        k(  433) = (   0.8000000   0.6000000   0.6456692), wk =   0.0040000
        k(  434) = (   0.8000000   0.6000000   0.7630636), wk =   0.0040000
        k(  435) = (   0.8000000   0.6000000   0.8804580), wk =   0.0040000
        k(  436) = (   0.8000000   0.7000000   0.4402290), wk =   0.0040000
        k(  437) = (   0.8000000   0.7000000   0.5576234), wk =   0.0040000
        k(  438) = (   0.8000000   0.7000000   0.6750178), wk =   0.0040000
        k(  439) = (   0.8000000   0.7000000   0.7924122), wk =   0.0040000
        k(  440) = (   0.8000000   0.7000000   0.9098066), wk =   0.0040000
        k(  441) = (   0.8000000   0.8000000   0.4695776), wk =   0.0040000
        k(  442) = (   0.8000000   0.8000000   0.5869720), wk =   0.0040000
        k(  443) = (   0.8000000   0.8000000   0.7043664), wk =   0.0040000
        k(  444) = (   0.8000000   0.8000000   0.8217608), wk =   0.0040000
        k(  445) = (   0.8000000   0.8000000   0.9391552), wk =   0.0040000
        k(  446) = (   0.8000000   0.9000000   0.4989262), wk =   0.0040000
        k(  447) = (   0.8000000   0.9000000   0.6163206), wk =   0.0040000
        k(  448) = (   0.8000000   0.9000000   0.7337150), wk =   0.0040000
        k(  449) = (   0.8000000   0.9000000   0.8511094), wk =   0.0040000
        k(  450) = (   0.8000000   0.9000000   0.9685038), wk =   0.0040000
        k(  451) = (   0.9000000   0.0000000   0.2641374), wk =   0.0040000
        k(  452) = (   0.9000000   0.0000000   0.3815318), wk =   0.0040000
        k(  453) = (   0.9000000   0.0000000   0.4989262), wk =   0.0040000
        k(  454) = (   0.9000000   0.0000000   0.6163206), wk =   0.0040000
        k(  455) = (   0.9000000   0.0000000   0.7337150), wk =   0.0040000
        k(  456) = (   0.9000000   0.1000000   0.2934860), wk =   0.0040000
        k(  457) = (   0.9000000   0.1000000   0.4108804), wk =   0.0040000
        k(  458) = (   0.9000000   0.1000000   0.5282748), wk =   0.0040000
        k(  459) = (   0.9000000   0.1000000   0.6456692), wk =   0.0040000
        k(  460) = (   0.9000000   0.1000000   0.7630636), wk =   0.0040000
        k(  461) = (   0.9000000   0.2000000   0.3228346), wk =   0.0040000
        k(  462) = (   0.9000000   0.2000000   0.4402290), wk =   0.0040000
        k(  463) = (   0.9000000   0.2000000   0.5576234), wk =   0.0040000
        k(  464) = (   0.9000000   0.2000000   0.6750178), wk =   0.0040000
        k(  465) = (   0.9000000   0.2000000   0.7924122), wk =   0.0040000
        k(  466) = (   0.9000000   0.3000000   0.3521832), wk =   0.0040000
        k(  467) = (   0.9000000   0.3000000   0.4695776), wk =   0.0040000
        k(  468) = (   0.9000000   0.3000000   0.5869720), wk =   0.0040000
        k(  469) = (   0.9000000   0.3000000   0.7043664), wk =   0.0040000
        k(  470) = (   0.9000000   0.3000000   0.8217608), wk =   0.0040000
        k(  471) = (   0.9000000   0.4000000   0.3815318), wk =   0.0040000
        k(  472) = (   0.9000000   0.4000000   0.4989262), wk =   0.0040000
        k(  473) = (   0.9000000   0.4000000   0.6163206), wk =   0.0040000
        k(  474) = (   0.9000000   0.4000000   0.7337150), wk =   0.0040000
        k(  475) = (   0.9000000   0.4000000   0.8511094), wk =   0.0040000
        k(  476) = (   0.9000000   0.5000000   0.4108804), wk =   0.0040000
        k(  477) = (   0.9000000   0.5000000   0.5282748), wk =   0.0040000
        k(  478) = (   0.9000000   0.5000000   0.6456692), wk =   0.0040000
        k(  479) = (   0.9000000   0.5000000   0.7630636), wk =   0.0040000
        k(  480) = (   0.9000000   0.5000000   0.8804580), wk =   0.0040000
        k(  481) = (   0.9000000   0.6000000   0.4402290), wk =   0.0040000
        k(  482) = (   0.9000000   0.6000000   0.5576234), wk =   0.0040000
        k(  483) = (   0.9000000   0.6000000   0.6750178), wk =   0.0040000
        k(  484) = (   0.9000000   0.6000000   0.7924122), wk =   0.0040000
        k(  485) = (   0.9000000   0.6000000   0.9098066), wk =   0.0040000
        k(  486) = (   0.9000000   0.7000000   0.4695776), wk =   0.0040000
        k(  487) = (   0.9000000   0.7000000   0.5869720), wk =   0.0040000
        k(  488) = (   0.9000000   0.7000000   0.7043664), wk =   0.0040000
        k(  489) = (   0.9000000   0.7000000   0.8217608), wk =   0.0040000
        k(  490) = (   0.9000000   0.7000000   0.9391552), wk =   0.0040000
        k(  491) = (   0.9000000   0.8000000   0.4989262), wk =   0.0040000
        k(  492) = (   0.9000000   0.8000000   0.6163206), wk =   0.0040000
        k(  493) = (   0.9000000   0.8000000   0.7337150), wk =   0.0040000
        k(  494) = (   0.9000000   0.8000000   0.8511094), wk =   0.0040000
        k(  495) = (   0.9000000   0.8000000   0.9685038), wk =   0.0040000
        k(  496) = (   0.9000000   0.9000000   0.5282748), wk =   0.0040000
        k(  497) = (   0.9000000   0.9000000   0.6456692), wk =   0.0040000
        k(  498) = (   0.9000000   0.9000000   0.7630636), wk =   0.0040000
        k(  499) = (   0.9000000   0.9000000   0.8804580), wk =   0.0040000
        k(  500) = (   0.9000000   0.9000000   0.9978524), wk =   0.0040000

                       cryst. coord.
        k(    1) = (   0.0000000   0.0000000   0.0000000), wk =   0.0040000
        k(    2) = (   0.0000000   0.0000000   0.2000000), wk =   0.0040000
        k(    3) = (   0.0000000   0.0000000   0.4000000), wk =   0.0040000
        k(    4) = (   0.0000000   0.0000000   0.6000000), wk =   0.0040000
        k(    5) = (   0.0000000   0.0000000   0.8000000), wk =   0.0040000
        k(    6) = (   0.0000000   0.1000000   0.0000000), wk =   0.0040000
        k(    7) = (   0.0000000   0.1000000   0.2000000), wk =   0.0040000
        k(    8) = (   0.0000000   0.1000000   0.4000000), wk =   0.0040000
        k(    9) = (   0.0000000   0.1000000   0.6000000), wk =   0.0040000
        k(   10) = (   0.0000000   0.1000000   0.8000000), wk =   0.0040000
        k(   11) = (   0.0000000   0.2000000   0.0000000), wk =   0.0040000
        k(   12) = (   0.0000000   0.2000000   0.2000000), wk =   0.0040000
        k(   13) = (   0.0000000   0.2000000   0.4000000), wk =   0.0040000
        k(   14) = (   0.0000000   0.2000000   0.6000000), wk =   0.0040000
        k(   15) = (   0.0000000   0.2000000   0.8000000), wk =   0.0040000
        k(   16) = (   0.0000000   0.3000000   0.0000000), wk =   0.0040000
        k(   17) = (   0.0000000   0.3000000   0.2000000), wk =   0.0040000
        k(   18) = (   0.0000000   0.3000000   0.4000000), wk =   0.0040000
        k(   19) = (   0.0000000   0.3000000   0.6000000), wk =   0.0040000
        k(   20) = (   0.0000000   0.3000000   0.8000000), wk =   0.0040000
        k(   21) = (   0.0000000   0.4000000   0.0000000), wk =   0.0040000
        k(   22) = (   0.0000000   0.4000000   0.2000000), wk =   0.0040000
        k(   23) = (   0.0000000   0.4000000   0.4000000), wk =   0.0040000
        k(   24) = (   0.0000000   0.4000000   0.6000000), wk =   0.0040000
        k(   25) = (   0.0000000   0.4000000   0.8000000), wk =   0.0040000
        k(   26) = (   0.0000000   0.5000000   0.0000000), wk =   0.0040000
        k(   27) = (   0.0000000   0.5000000   0.2000000), wk =   0.0040000
        k(   28) = (   0.0000000   0.5000000   0.4000000), wk =   0.0040000
        k(   29) = (   0.0000000   0.5000000   0.6000000), wk =   0.0040000
        k(   30) = (   0.0000000   0.5000000   0.8000000), wk =   0.0040000
        k(   31) = (   0.0000000   0.6000000   0.0000000), wk =   0.0040000
        k(   32) = (   0.0000000   0.6000000   0.2000000), wk =   0.0040000
        k(   33) = (   0.0000000   0.6000000   0.4000000), wk =   0.0040000
        k(   34) = (   0.0000000   0.6000000   0.6000000), wk =   0.0040000
        k(   35) = (   0.0000000   0.6000000   0.8000000), wk =   0.0040000
        k(   36) = (   0.0000000   0.7000000   0.0000000), wk =   0.0040000
        k(   37) = (   0.0000000   0.7000000   0.2000000), wk =   0.0040000
        k(   38) = (   0.0000000   0.7000000   0.4000000), wk =   0.0040000
        k(   39) = (   0.0000000   0.7000000   0.6000000), wk =   0.0040000
        k(   40) = (   0.0000000   0.7000000   0.8000000), wk =   0.0040000
        k(   41) = (   0.0000000   0.8000000   0.0000000), wk =   0.0040000
        k(   42) = (   0.0000000   0.8000000   0.2000000), wk =   0.0040000
        k(   43) = (   0.0000000   0.8000000   0.4000000), wk =   0.0040000
        k(   44) = (   0.0000000   0.8000000   0.6000000), wk =   0.0040000
        k(   45) = (   0.0000000   0.8000000   0.8000000), wk =   0.0040000
        k(   46) = (   0.0000000   0.9000000   0.0000000), wk =   0.0040000
        k(   47) = (   0.0000000   0.9000000   0.2000000), wk =   0.0040000
        k(   48) = (   0.0000000   0.9000000   0.4000000), wk =   0.0040000
        k(   49) = (   0.0000000   0.9000000   0.6000000), wk =   0.0040000
        k(   50) = (   0.0000000   0.9000000   0.8000000), wk =   0.0040000
        k(   51) = (   0.1000000   0.0000000   0.0000000), wk =   0.0040000
        k(   52) = (   0.1000000   0.0000000   0.2000000), wk =   0.0040000
        k(   53) = (   0.1000000   0.0000000   0.4000000), wk =   0.0040000
        k(   54) = (   0.1000000   0.0000000   0.6000000), wk =   0.0040000
        k(   55) = (   0.1000000   0.0000000   0.8000000), wk =   0.0040000
        k(   56) = (   0.1000000   0.1000000   0.0000000), wk =   0.0040000
        k(   57) = (   0.1000000   0.1000000   0.2000000), wk =   0.0040000
        k(   58) = (   0.1000000   0.1000000   0.4000000), wk =   0.0040000
        k(   59) = (   0.1000000   0.1000000   0.6000000), wk =   0.0040000
        k(   60) = (   0.1000000   0.1000000   0.8000000), wk =   0.0040000
        k(   61) = (   0.1000000   0.2000000   0.0000000), wk =   0.0040000
        k(   62) = (   0.1000000   0.2000000   0.2000000), wk =   0.0040000
        k(   63) = (   0.1000000   0.2000000   0.4000000), wk =   0.0040000
        k(   64) = (   0.1000000   0.2000000   0.6000000), wk =   0.0040000
        k(   65) = (   0.1000000   0.2000000   0.8000000), wk =   0.0040000
        k(   66) = (   0.1000000   0.3000000  -0.0000000), wk =   0.0040000
        k(   67) = (   0.1000000   0.3000000   0.2000000), wk =   0.0040000
        k(   68) = (   0.1000000   0.3000000   0.4000000), wk =   0.0040000
        k(   69) = (   0.1000000   0.3000000   0.6000000), wk =   0.0040000
        k(   70) = (   0.1000000   0.3000000   0.8000000), wk =   0.0040000
        k(   71) = (   0.1000000   0.4000000   0.0000000), wk =   0.0040000
        k(   72) = (   0.1000000   0.4000000   0.2000000), wk =   0.0040000
        k(   73) = (   0.1000000   0.4000000   0.4000000), wk =   0.0040000
        k(   74) = (   0.1000000   0.4000000   0.6000000), wk =   0.0040000
        k(   75) = (   0.1000000   0.4000000   0.8000000), wk =   0.0040000
        k(   76) = (   0.1000000   0.5000000   0.0000000), wk =   0.0040000
        k(   77) = (   0.1000000   0.5000000   0.2000000), wk =   0.0040000
        k(   78) = (   0.1000000   0.5000000   0.4000000), wk =   0.0040000
        k(   79) = (   0.1000000   0.5000000   0.6000000), wk =   0.0040000
        k(   80) = (   0.1000000   0.5000000   0.8000000), wk =   0.0040000
        k(   81) = (   0.1000000   0.6000000   0.0000000), wk =   0.0040000
        k(   82) = (   0.1000000   0.6000000   0.2000000), wk =   0.0040000
        k(   83) = (   0.1000000   0.6000000   0.4000000), wk =   0.0040000
        k(   84) = (   0.1000000   0.6000000   0.6000000), wk =   0.0040000
        k(   85) = (   0.1000000   0.6000000   0.8000000), wk =   0.0040000
        k(   86) = (   0.1000000   0.7000000   0.0000000), wk =   0.0040000
        k(   87) = (   0.1000000   0.7000000   0.2000000), wk =   0.0040000
        k(   88) = (   0.1000000   0.7000000   0.4000000), wk =   0.0040000
        k(   89) = (   0.1000000   0.7000000   0.6000000), wk =   0.0040000
        k(   90) = (   0.1000000   0.7000000   0.8000000), wk =   0.0040000
        k(   91) = (   0.1000000   0.8000000   0.0000000), wk =   0.0040000
        k(   92) = (   0.1000000   0.8000000   0.2000000), wk =   0.0040000
        k(   93) = (   0.1000000   0.8000000   0.4000000), wk =   0.0040000
        k(   94) = (   0.1000000   0.8000000   0.6000000), wk =   0.0040000
        k(   95) = (   0.1000000   0.8000000   0.8000000), wk =   0.0040000
        k(   96) = (   0.1000000   0.9000000   0.0000000), wk =   0.0040000
        k(   97) = (   0.1000000   0.9000000   0.2000000), wk =   0.0040000
        k(   98) = (   0.1000000   0.9000000   0.4000000), wk =   0.0040000
        k(   99) = (   0.1000000   0.9000000   0.6000000), wk =   0.0040000
        k(  100) = (   0.1000000   0.9000000   0.8000000), wk =   0.0040000
        k(  101) = (   0.2000000   0.0000000   0.0000000), wk =   0.0040000
        k(  102) = (   0.2000000   0.0000000   0.2000000), wk =   0.0040000
        k(  103) = (   0.2000000   0.0000000   0.4000000), wk =   0.0040000
        k(  104) = (   0.2000000   0.0000000   0.6000000), wk =   0.0040000
        k(  105) = (   0.2000000   0.0000000   0.8000000), wk =   0.0040000
        k(  106) = (   0.2000000   0.1000000   0.0000000), wk =   0.0040000
        k(  107) = (   0.2000000   0.1000000   0.2000000), wk =   0.0040000
        k(  108) = (   0.2000000   0.1000000   0.4000000), wk =   0.0040000
        k(  109) = (   0.2000000   0.1000000   0.6000000), wk =   0.0040000
        k(  110) = (   0.2000000   0.1000000   0.8000000), wk =   0.0040000
        k(  111) = (   0.2000000   0.2000000   0.0000000), wk =   0.0040000
        k(  112) = (   0.2000000   0.2000000   0.2000000), wk =   0.0040000
        k(  113) = (   0.2000000   0.2000000   0.4000000), wk =   0.0040000
        k(  114) = (   0.2000000   0.2000000   0.6000000), wk =   0.0040000
        k(  115) = (   0.2000000   0.2000000   0.8000000), wk =   0.0040000
        k(  116) = (   0.2000000   0.3000000   0.0000000), wk =   0.0040000
        k(  117) = (   0.2000000   0.3000000   0.2000000), wk =   0.0040000
        k(  118) = (   0.2000000   0.3000000   0.4000000), wk =   0.0040000
        k(  119) = (   0.2000000   0.3000000   0.6000000), wk =   0.0040000
        k(  120) = (   0.2000000   0.3000000   0.8000000), wk =   0.0040000
        k(  121) = (   0.2000000   0.4000000   0.0000000), wk =   0.0040000
        k(  122) = (   0.2000000   0.4000000   0.2000000), wk =   0.0040000
        k(  123) = (   0.2000000   0.4000000   0.4000000), wk =   0.0040000
        k(  124) = (   0.2000000   0.4000000   0.6000000), wk =   0.0040000
        k(  125) = (   0.2000000   0.4000000   0.8000000), wk =   0.0040000
        k(  126) = (   0.2000000   0.5000000   0.0000000), wk =   0.0040000
        k(  127) = (   0.2000000   0.5000000   0.2000000), wk =   0.0040000
        k(  128) = (   0.2000000   0.5000000   0.4000000), wk =   0.0040000
        k(  129) = (   0.2000000   0.5000000   0.6000000), wk =   0.0040000
        k(  130) = (   0.2000000   0.5000000   0.8000000), wk =   0.0040000
        k(  131) = (   0.2000000   0.6000000  -0.0000000), wk =   0.0040000
        k(  132) = (   0.2000000   0.6000000   0.2000000), wk =   0.0040000
        k(  133) = (   0.2000000   0.6000000   0.4000000), wk =   0.0040000
        k(  134) = (   0.2000000   0.6000000   0.6000000), wk =   0.0040000
        k(  135) = (   0.2000000   0.6000000   0.8000000), wk =   0.0040000
        k(  136) = (   0.2000000   0.7000000   0.0000000), wk =   0.0040000
        k(  137) = (   0.2000000   0.7000000   0.2000000), wk =   0.0040000
        k(  138) = (   0.2000000   0.7000000   0.4000000), wk =   0.0040000
        k(  139) = (   0.2000000   0.7000000   0.6000000), wk =   0.0040000
        k(  140) = (   0.2000000   0.7000000   0.8000000), wk =   0.0040000
        k(  141) = (   0.2000000   0.8000000   0.0000000), wk =   0.0040000
        k(  142) = (   0.2000000   0.8000000   0.2000000), wk =   0.0040000
        k(  143) = (   0.2000000   0.8000000   0.4000000), wk =   0.0040000
        k(  144) = (   0.2000000   0.8000000   0.6000000), wk =   0.0040000
        k(  145) = (   0.2000000   0.8000000   0.8000000), wk =   0.0040000
        k(  146) = (   0.2000000   0.9000000   0.0000000), wk =   0.0040000
        k(  147) = (   0.2000000   0.9000000   0.2000000), wk =   0.0040000
        k(  148) = (   0.2000000   0.9000000   0.4000000), wk =   0.0040000
        k(  149) = (   0.2000000   0.9000000   0.6000000), wk =   0.0040000
        k(  150) = (   0.2000000   0.9000000   0.8000000), wk =   0.0040000
        k(  151) = (   0.3000000   0.0000000   0.0000000), wk =   0.0040000
        k(  152) = (   0.3000000   0.0000000   0.2000000), wk =   0.0040000
        k(  153) = (   0.3000000   0.0000000   0.4000000), wk =   0.0040000
        k(  154) = (   0.3000000   0.0000000   0.6000000), wk =   0.0040000
        k(  155) = (   0.3000000   0.0000000   0.8000000), wk =   0.0040000
        k(  156) = (   0.3000000   0.1000000  -0.0000000), wk =   0.0040000
        k(  157) = (   0.3000000   0.1000000   0.2000000), wk =   0.0040000
        k(  158) = (   0.3000000   0.1000000   0.4000000), wk =   0.0040000
        k(  159) = (   0.3000000   0.1000000   0.6000000), wk =   0.0040000
        k(  160) = (   0.3000000   0.1000000   0.8000000), wk =   0.0040000
        k(  161) = (   0.3000000   0.2000000   0.0000000), wk =   0.0040000
        k(  162) = (   0.3000000   0.2000000   0.2000000), wk =   0.0040000
        k(  163) = (   0.3000000   0.2000000   0.4000000), wk =   0.0040000
        k(  164) = (   0.3000000   0.2000000   0.6000000), wk =   0.0040000
        k(  165) = (   0.3000000   0.2000000   0.8000000), wk =   0.0040000
        k(  166) = (   0.3000000   0.3000000   0.0000000), wk =   0.0040000
        k(  167) = (   0.3000000   0.3000000   0.2000000), wk =   0.0040000
        k(  168) = (   0.3000000   0.3000000   0.4000000), wk =   0.0040000
        k(  169) = (   0.3000000   0.3000000   0.6000000), wk =   0.0040000
        k(  170) = (   0.3000000   0.3000000   0.8000000), wk =   0.0040000
        k(  171) = (   0.3000000   0.4000000   0.0000000), wk =   0.0040000
        k(  172) = (   0.3000000   0.4000000   0.2000000), wk =   0.0040000
        k(  173) = (   0.3000000   0.4000000   0.4000000), wk =   0.0040000
        k(  174) = (   0.3000000   0.4000000   0.6000000), wk =   0.0040000
        k(  175) = (   0.3000000   0.4000000   0.8000000), wk =   0.0040000
        k(  176) = (   0.3000000   0.5000000  -0.0000000), wk =   0.0040000
        k(  177) = (   0.3000000   0.5000000   0.2000000), wk =   0.0040000
        k(  178) = (   0.3000000   0.5000000   0.4000000), wk =   0.0040000
        k(  179) = (   0.3000000   0.5000000   0.6000000), wk =   0.0040000
        k(  180) = (   0.3000000   0.5000000   0.8000000), wk =   0.0040000
        k(  181) = (   0.3000000   0.6000000   0.0000000), wk =   0.0040000
        k(  182) = (   0.3000000   0.6000000   0.2000000), wk =   0.0040000
        k(  183) = (   0.3000000   0.6000000   0.4000000), wk =   0.0040000
        k(  184) = (   0.3000000   0.6000000   0.6000000), wk =   0.0040000
        k(  185) = (   0.3000000   0.6000000   0.8000000), wk =   0.0040000
        k(  186) = (   0.3000000   0.7000000   0.0000000), wk =   0.0040000
        k(  187) = (   0.3000000   0.7000000   0.2000000), wk =   0.0040000
        k(  188) = (   0.3000000   0.7000000   0.4000000), wk =   0.0040000
        k(  189) = (   0.3000000   0.7000000   0.6000000), wk =   0.0040000
        k(  190) = (   0.3000000   0.7000000   0.8000000), wk =   0.0040000
        k(  191) = (   0.3000000   0.8000000   0.0000000), wk =   0.0040000
        k(  192) = (   0.3000000   0.8000000   0.2000000), wk =   0.0040000
        k(  193) = (   0.3000000   0.8000000   0.4000000), wk =   0.0040000
        k(  194) = (   0.3000000   0.8000000   0.6000000), wk =   0.0040000
        k(  195) = (   0.3000000   0.8000000   0.8000000), wk =   0.0040000
        k(  196) = (   0.3000000   0.9000000   0.0000000), wk =   0.0040000
        k(  197) = (   0.3000000   0.9000000   0.2000000), wk =   0.0040000
        k(  198) = (   0.3000000   0.9000000   0.4000000), wk =   0.0040000
        k(  199) = (   0.3000000   0.9000000   0.6000000), wk =   0.0040000
        k(  200) = (   0.3000000   0.9000000   0.8000000), wk =   0.0040000
        k(  201) = (   0.4000000   0.0000000   0.0000000), wk =   0.0040000
        k(  202) = (   0.4000000   0.0000000   0.2000000), wk =   0.0040000
        k(  203) = (   0.4000000   0.0000000   0.4000000), wk =   0.0040000
        k(  204) = (   0.4000000   0.0000000   0.6000000), wk =   0.0040000
        k(  205) = (   0.4000000   0.0000000   0.8000000), wk =   0.0040000
        k(  206) = (   0.4000000   0.1000000   0.0000000), wk =   0.0040000
        k(  207) = (   0.4000000   0.1000000   0.2000000), wk =   0.0040000
        k(  208) = (   0.4000000   0.1000000   0.4000000), wk =   0.0040000
        k(  209) = (   0.4000000   0.1000000   0.6000000), wk =   0.0040000
        k(  210) = (   0.4000000   0.1000000   0.8000000), wk =   0.0040000
        k(  211) = (   0.4000000   0.2000000   0.0000000), wk =   0.0040000
        k(  212) = (   0.4000000   0.2000000   0.2000000), wk =   0.0040000
        k(  213) = (   0.4000000   0.2000000   0.4000000), wk =   0.0040000
        k(  214) = (   0.4000000   0.2000000   0.6000000), wk =   0.0040000
        k(  215) = (   0.4000000   0.2000000   0.8000000), wk =   0.0040000
        k(  216) = (   0.4000000   0.3000000   0.0000000), wk =   0.0040000
        k(  217) = (   0.4000000   0.3000000   0.2000000), wk =   0.0040000
        k(  218) = (   0.4000000   0.3000000   0.4000000), wk =   0.0040000
        k(  219) = (   0.4000000   0.3000000   0.6000000), wk =   0.0040000
        k(  220) = (   0.4000000   0.3000000   0.8000000), wk =   0.0040000
        k(  221) = (   0.4000000   0.4000000   0.0000000), wk =   0.0040000
        k(  222) = (   0.4000000   0.4000000   0.2000000), wk =   0.0040000
        k(  223) = (   0.4000000   0.4000000   0.4000000), wk =   0.0040000
        k(  224) = (   0.4000000   0.4000000   0.6000000), wk =   0.0040000
        k(  225) = (   0.4000000   0.4000000   0.8000000), wk =   0.0040000
        k(  226) = (   0.4000000   0.5000000   0.0000000), wk =   0.0040000
        k(  227) = (   0.4000000   0.5000000   0.2000000), wk =   0.0040000
        k(  228) = (   0.4000000   0.5000000   0.4000000), wk =   0.0040000
        k(  229) = (   0.4000000   0.5000000   0.6000000), wk =   0.0040000
        k(  230) = (   0.4000000   0.5000000   0.8000000), wk =   0.0040000
        k(  231) = (   0.4000000   0.6000000   0.0000000), wk =   0.0040000
        k(  232) = (   0.4000000   0.6000000   0.2000000), wk =   0.0040000
        k(  233) = (   0.4000000   0.6000000   0.4000000), wk =   0.0040000
        k(  234) = (   0.4000000   0.6000000   0.6000000), wk =   0.0040000
        k(  235) = (   0.4000000   0.6000000   0.8000000), wk =   0.0040000
        k(  236) = (   0.4000000   0.7000000   0.0000000), wk =   0.0040000
        k(  237) = (   0.4000000   0.7000000   0.2000000), wk =   0.0040000
        k(  238) = (   0.4000000   0.7000000   0.4000000), wk =   0.0040000
        k(  239) = (   0.4000000   0.7000000   0.6000000), wk =   0.0040000
        k(  240) = (   0.4000000   0.7000000   0.8000000), wk =   0.0040000
        k(  241) = (   0.4000000   0.8000000   0.0000000), wk =   0.0040000
        k(  242) = (   0.4000000   0.8000000   0.2000000), wk =   0.0040000
        k(  243) = (   0.4000000   0.8000000   0.4000000), wk =   0.0040000
        k(  244) = (   0.4000000   0.8000000   0.6000000), wk =   0.0040000
        k(  245) = (   0.4000000   0.8000000   0.8000000), wk =   0.0040000
        k(  246) = (   0.4000000   0.9000000   0.0000000), wk =   0.0040000
        k(  247) = (   0.4000000   0.9000000   0.2000000), wk =   0.0040000
        k(  248) = (   0.4000000   0.9000000   0.4000000), wk =   0.0040000
        k(  249) = (   0.4000000   0.9000000   0.6000000), wk =   0.0040000
        k(  250) = (   0.4000000   0.9000000   0.8000000), wk =   0.0040000
        k(  251) = (   0.5000000   0.0000000   0.0000000), wk =   0.0040000
        k(  252) = (   0.5000000   0.0000000   0.2000000), wk =   0.0040000
        k(  253) = (   0.5000000   0.0000000   0.4000000), wk =   0.0040000
        k(  254) = (   0.5000000   0.0000000   0.6000000), wk =   0.0040000
        k(  255) = (   0.5000000   0.0000000   0.8000000), wk =   0.0040000
        k(  256) = (   0.5000000   0.1000000   0.0000000), wk =   0.0040000
        k(  257) = (   0.5000000   0.1000000   0.2000000), wk =   0.0040000
        k(  258) = (   0.5000000   0.1000000   0.4000000), wk =   0.0040000
        k(  259) = (   0.5000000   0.1000000   0.6000000), wk =   0.0040000
        k(  260) = (   0.5000000   0.1000000   0.8000000), wk =   0.0040000
        k(  261) = (   0.5000000   0.2000000   0.0000000), wk =   0.0040000
        k(  262) = (   0.5000000   0.2000000   0.2000000), wk =   0.0040000
        k(  263) = (   0.5000000   0.2000000   0.4000000), wk =   0.0040000
        k(  264) = (   0.5000000   0.2000000   0.6000000), wk =   0.0040000
        k(  265) = (   0.5000000   0.2000000   0.8000000), wk =   0.0040000
        k(  266) = (   0.5000000   0.3000000  -0.0000000), wk =   0.0040000
        k(  267) = (   0.5000000   0.3000000   0.2000000), wk =   0.0040000
        k(  268) = (   0.5000000   0.3000000   0.4000000), wk =   0.0040000
        k(  269) = (   0.5000000   0.3000000   0.6000000), wk =   0.0040000
        k(  270) = (   0.5000000   0.3000000   0.8000000), wk =   0.0040000
        k(  271) = (   0.5000000   0.4000000   0.0000000), wk =   0.0040000
        k(  272) = (   0.5000000   0.4000000   0.2000000), wk =   0.0040000
        k(  273) = (   0.5000000   0.4000000   0.4000000), wk =   0.0040000
        k(  274) = (   0.5000000   0.4000000   0.6000000), wk =   0.0040000
        k(  275) = (   0.5000000   0.4000000   0.8000000), wk =   0.0040000
        k(  276) = (   0.5000000   0.5000000   0.0000000), wk =   0.0040000
        k(  277) = (   0.5000000   0.5000000   0.2000000), wk =   0.0040000
        k(  278) = (   0.5000000   0.5000000   0.4000000), wk =   0.0040000
        k(  279) = (   0.5000000   0.5000000   0.6000000), wk =   0.0040000
        k(  280) = (   0.5000000   0.5000000   0.8000000), wk =   0.0040000
        k(  281) = (   0.5000000   0.6000000  -0.0000000), wk =   0.0040000
        k(  282) = (   0.5000000   0.6000000   0.2000000), wk =   0.0040000
        k(  283) = (   0.5000000   0.6000000   0.4000000), wk =   0.0040000
        k(  284) = (   0.5000000   0.6000000   0.6000000), wk =   0.0040000
        k(  285) = (   0.5000000   0.6000000   0.8000000), wk =   0.0040000
        k(  286) = (   0.5000000   0.7000000   0.0000000), wk =   0.0040000
        k(  287) = (   0.5000000   0.7000000   0.2000000), wk =   0.0040000
        k(  288) = (   0.5000000   0.7000000   0.4000000), wk =   0.0040000
        k(  289) = (   0.5000000   0.7000000   0.6000000), wk =   0.0040000
        k(  290) = (   0.5000000   0.7000000   0.8000000), wk =   0.0040000
        k(  291) = (   0.5000000   0.8000000   0.0000000), wk =   0.0040000
        k(  292) = (   0.5000000   0.8000000   0.2000000), wk =   0.0040000
        k(  293) = (   0.5000000   0.8000000   0.4000000), wk =   0.0040000
        k(  294) = (   0.5000000   0.8000000   0.6000000), wk =   0.0040000
        k(  295) = (   0.5000000   0.8000000   0.8000000), wk =   0.0040000
        k(  296) = (   0.5000000   0.9000000   0.0000000), wk =   0.0040000
        k(  297) = (   0.5000000   0.9000000   0.2000000), wk =   0.0040000
        k(  298) = (   0.5000000   0.9000000   0.4000000), wk =   0.0040000
        k(  299) = (   0.5000000   0.9000000   0.6000000), wk =   0.0040000
        k(  300) = (   0.5000000   0.9000000   0.8000000), wk =   0.0040000
        k(  301) = (   0.6000000   0.0000000   0.0000000), wk =   0.0040000
        k(  302) = (   0.6000000   0.0000000   0.2000000), wk =   0.0040000
        k(  303) = (   0.6000000   0.0000000   0.4000000), wk =   0.0040000
        k(  304) = (   0.6000000   0.0000000   0.6000000), wk =   0.0040000
        k(  305) = (   0.6000000   0.0000000   0.8000000), wk =   0.0040000
        k(  306) = (   0.6000000   0.1000000   0.0000000), wk =   0.0040000
        k(  307) = (   0.6000000   0.1000000   0.2000000), wk =   0.0040000
        k(  308) = (   0.6000000   0.1000000   0.4000000), wk =   0.0040000
        k(  309) = (   0.6000000   0.1000000   0.6000000), wk =   0.0040000
        k(  310) = (   0.6000000   0.1000000   0.8000000), wk =   0.0040000
        k(  311) = (   0.6000000   0.2000000  -0.0000000), wk =   0.0040000
        k(  312) = (   0.6000000   0.2000000   0.2000000), wk =   0.0040000
        k(  313) = (   0.6000000   0.2000000   0.4000000), wk =   0.0040000
        k(  314) = (   0.6000000   0.2000000   0.6000000), wk =   0.0040000
        k(  315) = (   0.6000000   0.2000000   0.8000000), wk =   0.0040000
        k(  316) = (   0.6000000   0.3000000   0.0000000), wk =   0.0040000
        k(  317) = (   0.6000000   0.3000000   0.2000000), wk =   0.0040000
        k(  318) = (   0.6000000   0.3000000   0.4000000), wk =   0.0040000
        k(  319) = (   0.6000000   0.3000000   0.6000000), wk =   0.0040000
        k(  320) = (   0.6000000   0.3000000   0.8000000), wk =   0.0040000
        k(  321) = (   0.6000000   0.4000000   0.0000000), wk =   0.0040000
        k(  322) = (   0.6000000   0.4000000   0.2000000), wk =   0.0040000
        k(  323) = (   0.6000000   0.4000000   0.4000000), wk =   0.0040000
        k(  324) = (   0.6000000   0.4000000   0.6000000), wk =   0.0040000
        k(  325) = (   0.6000000   0.4000000   0.8000000), wk =   0.0040000
        k(  326) = (   0.6000000   0.5000000  -0.0000000), wk =   0.0040000
        k(  327) = (   0.6000000   0.5000000   0.2000000), wk =   0.0040000
        k(  328) = (   0.6000000   0.5000000   0.4000000), wk =   0.0040000
        k(  329) = (   0.6000000   0.5000000   0.6000000), wk =   0.0040000
        k(  330) = (   0.6000000   0.5000000   0.8000000), wk =   0.0040000
        k(  331) = (   0.6000000   0.6000000   0.0000000), wk =   0.0040000
        k(  332) = (   0.6000000   0.6000000   0.2000000), wk =   0.0040000
        k(  333) = (   0.6000000   0.6000000   0.4000000), wk =   0.0040000
        k(  334) = (   0.6000000   0.6000000   0.6000000), wk =   0.0040000
        k(  335) = (   0.6000000   0.6000000   0.8000000), wk =   0.0040000
        k(  336) = (   0.6000000   0.7000000   0.0000000), wk =   0.0040000
        k(  337) = (   0.6000000   0.7000000   0.2000000), wk =   0.0040000
        k(  338) = (   0.6000000   0.7000000   0.4000000), wk =   0.0040000
        k(  339) = (   0.6000000   0.7000000   0.6000000), wk =   0.0040000
        k(  340) = (   0.6000000   0.7000000   0.8000000), wk =   0.0040000
        k(  341) = (   0.6000000   0.8000000   0.0000000), wk =   0.0040000
        k(  342) = (   0.6000000   0.8000000   0.2000000), wk =   0.0040000
        k(  343) = (   0.6000000   0.8000000   0.4000000), wk =   0.0040000
        k(  344) = (   0.6000000   0.8000000   0.6000000), wk =   0.0040000
        k(  345) = (   0.6000000   0.8000000   0.8000000), wk =   0.0040000
        k(  346) = (   0.6000000   0.9000000   0.0000000), wk =   0.0040000
        k(  347) = (   0.6000000   0.9000000   0.2000000), wk =   0.0040000
        k(  348) = (   0.6000000   0.9000000   0.4000000), wk =   0.0040000
        k(  349) = (   0.6000000   0.9000000   0.6000000), wk =   0.0040000
        k(  350) = (   0.6000000   0.9000000   0.8000000), wk =   0.0040000
        k(  351) = (   0.7000000   0.0000000   0.0000000), wk =   0.0040000
        k(  352) = (   0.7000000   0.0000000   0.2000000), wk =   0.0040000
        k(  353) = (   0.7000000   0.0000000   0.4000000), wk =   0.0040000
        k(  354) = (   0.7000000   0.0000000   0.6000000), wk =   0.0040000
        k(  355) = (   0.7000000   0.0000000   0.8000000), wk =   0.0040000
        k(  356) = (   0.7000000   0.1000000   0.0000000), wk =   0.0040000
        k(  357) = (   0.7000000   0.1000000   0.2000000), wk =   0.0040000
        k(  358) = (   0.7000000   0.1000000   0.4000000), wk =   0.0040000
        k(  359) = (   0.7000000   0.1000000   0.6000000), wk =   0.0040000
        k(  360) = (   0.7000000   0.1000000   0.8000000), wk =   0.0040000
        k(  361) = (   0.7000000   0.2000000   0.0000000), wk =   0.0040000
        k(  362) = (   0.7000000   0.2000000   0.2000000), wk =   0.0040000
        k(  363) = (   0.7000000   0.2000000   0.4000000), wk =   0.0040000
        k(  364) = (   0.7000000   0.2000000   0.6000000), wk =   0.0040000
        k(  365) = (   0.7000000   0.2000000   0.8000000), wk =   0.0040000
        k(  366) = (   0.7000000   0.3000000   0.0000000), wk =   0.0040000
        k(  367) = (   0.7000000   0.3000000   0.2000000), wk =   0.0040000
        k(  368) = (   0.7000000   0.3000000   0.4000000), wk =   0.0040000
        k(  369) = (   0.7000000   0.3000000   0.6000000), wk =   0.0040000
        k(  370) = (   0.7000000   0.3000000   0.8000000), wk =   0.0040000
        k(  371) = (   0.7000000   0.4000000   0.0000000), wk =   0.0040000
        k(  372) = (   0.7000000   0.4000000   0.2000000), wk =   0.0040000
        k(  373) = (   0.7000000   0.4000000   0.4000000), wk =   0.0040000
        k(  374) = (   0.7000000   0.4000000   0.6000000), wk =   0.0040000
        k(  375) = (   0.7000000   0.4000000   0.8000000), wk =   0.0040000
        k(  376) = (   0.7000000   0.5000000   0.0000000), wk =   0.0040000
        k(  377) = (   0.7000000   0.5000000   0.2000000), wk =   0.0040000
        k(  378) = (   0.7000000   0.5000000   0.4000000), wk =   0.0040000
        k(  379) = (   0.7000000   0.5000000   0.6000000), wk =   0.0040000
        k(  380) = (   0.7000000   0.5000000   0.8000000), wk =   0.0040000
        k(  381) = (   0.7000000   0.6000000   0.0000000), wk =   0.0040000
        k(  382) = (   0.7000000   0.6000000   0.2000000), wk =   0.0040000
        k(  383) = (   0.7000000   0.6000000   0.4000000), wk =   0.0040000
        k(  384) = (   0.7000000   0.6000000   0.6000000), wk =   0.0040000
        k(  385) = (   0.7000000   0.6000000   0.8000000), wk =   0.0040000
        k(  386) = (   0.7000000   0.7000000   0.0000000), wk =   0.0040000
        k(  387) = (   0.7000000   0.7000000   0.2000000), wk =   0.0040000
        k(  388) = (   0.7000000   0.7000000   0.4000000), wk =   0.0040000
        k(  389) = (   0.7000000   0.7000000   0.6000000), wk =   0.0040000
        k(  390) = (   0.7000000   0.7000000   0.8000000), wk =   0.0040000
        k(  391) = (   0.7000000   0.8000000   0.0000000), wk =   0.0040000
        k(  392) = (   0.7000000   0.8000000   0.2000000), wk =   0.0040000
        k(  393) = (   0.7000000   0.8000000   0.4000000), wk =   0.0040000
        k(  394) = (   0.7000000   0.8000000   0.6000000), wk =   0.0040000
        k(  395) = (   0.7000000   0.8000000   0.8000000), wk =   0.0040000
        k(  396) = (   0.7000000   0.9000000  -0.0000000), wk =   0.0040000
        k(  397) = (   0.7000000   0.9000000   0.2000000), wk =   0.0040000
        k(  398) = (   0.7000000   0.9000000   0.4000000), wk =   0.0040000
        k(  399) = (   0.7000000   0.9000000   0.6000000), wk =   0.0040000
        k(  400) = (   0.7000000   0.9000000   0.8000000), wk =   0.0040000
        k(  401) = (   0.8000000   0.0000000   0.0000000), wk =   0.0040000
        k(  402) = (   0.8000000   0.0000000   0.2000000), wk =   0.0040000
        k(  403) = (   0.8000000   0.0000000   0.4000000), wk =   0.0040000
        k(  404) = (   0.8000000   0.0000000   0.6000000), wk =   0.0040000
        k(  405) = (   0.8000000   0.0000000   0.8000000), wk =   0.0040000
        k(  406) = (   0.8000000   0.1000000   0.0000000), wk =   0.0040000
        k(  407) = (   0.8000000   0.1000000   0.2000000), wk =   0.0040000
        k(  408) = (   0.8000000   0.1000000   0.4000000), wk =   0.0040000
        k(  409) = (   0.8000000   0.1000000   0.6000000), wk =   0.0040000
        k(  410) = (   0.8000000   0.1000000   0.8000000), wk =   0.0040000
        k(  411) = (   0.8000000   0.2000000   0.0000000), wk =   0.0040000
        k(  412) = (   0.8000000   0.2000000   0.2000000), wk =   0.0040000
        k(  413) = (   0.8000000   0.2000000   0.4000000), wk =   0.0040000
        k(  414) = (   0.8000000   0.2000000   0.6000000), wk =   0.0040000
        k(  415) = (   0.8000000   0.2000000   0.8000000), wk =   0.0040000
        k(  416) = (   0.8000000   0.3000000   0.0000000), wk =   0.0040000
        k(  417) = (   0.8000000   0.3000000   0.2000000), wk =   0.0040000
        k(  418) = (   0.8000000   0.3000000   0.4000000), wk =   0.0040000
        k(  419) = (   0.8000000   0.3000000   0.6000000), wk =   0.0040000
        k(  420) = (   0.8000000   0.3000000   0.8000000), wk =   0.0040000
        k(  421) = (   0.8000000   0.4000000   0.0000000), wk =   0.0040000
        k(  422) = (   0.8000000   0.4000000   0.2000000), wk =   0.0040000
        k(  423) = (   0.8000000   0.4000000   0.4000000), wk =   0.0040000
        k(  424) = (   0.8000000   0.4000000   0.6000000), wk =   0.0040000
        k(  425) = (   0.8000000   0.4000000   0.8000000), wk =   0.0040000
        k(  426) = (   0.8000000   0.5000000   0.0000000), wk =   0.0040000
        k(  427) = (   0.8000000   0.5000000   0.2000000), wk =   0.0040000
        k(  428) = (   0.8000000   0.5000000   0.4000000), wk =   0.0040000
        k(  429) = (   0.8000000   0.5000000   0.6000000), wk =   0.0040000
        k(  430) = (   0.8000000   0.5000000   0.8000000), wk =   0.0040000
        k(  431) = (   0.8000000   0.6000000   0.0000000), wk =   0.0040000
        k(  432) = (   0.8000000   0.6000000   0.2000000), wk =   0.0040000
        k(  433) = (   0.8000000   0.6000000   0.4000000), wk =   0.0040000
        k(  434) = (   0.8000000   0.6000000   0.6000000), wk =   0.0040000
[...]

   -39.9961 -39.9782 -16.3188 -16.2025 -16.1331 -16.1124 -15.9974 -15.9703
     3.5605   4.4251   9.5211   9.9432  11.4068  11.6154  12.3636  12.6446
    13.4931  14.3708  15.4238  16.1945  16.6997  17.5715

     occupation numbers 
     1.0000   1.0000   1.0000   1.0000   1.0000   1.0000   1.0000   1.0000
     1.0000   1.0000   1.0000   1.0000   1.0000   1.0000   1.0000   1.0000
     1.0000   1.0000   0.0000   0.0000   0.0000   0.0000

          k = 0.9000 0.3000 0.5870 (  1857 PWs)   bands (ev):

   -39.9905 -39.9838 -16.3212 -16.1732 -16.1313 -16.0986 -16.0387 -15.9721
     3.8898   4.0399   9.6914   9.9261  11.5002  11.7283  11.9864  12.5095
    13.5220  14.2762  15.9696  16.2121  16.7305  17.5352

     occupation numbers 
     1.0000   1.0000   1.0000   1.0000   1.0000   1.0000   1.0000   1.0000
     1.0000   1.0000   1.0000   1.0000   1.0000   1.0000   1.0000   1.0000
     1.0000   1.0000   0.0000   0.0000   0.0000   0.0000

          k = 0.9000 0.3000 0.7044 (  1862 PWs)   bands (ev):

   -39.9961 -39.9782 -16.3188 -16.2025 -16.1331 -16.1124 -15.9974 -15.9703
     3.5605   4.4251   9.5211   9.9432  11.4068  11.6154  12.3636  12.6446
    13.4931  14.3708  15.4238  16.1945  16.6997  17.5715

     occupation numbers 
     1.0000   1.0000   1.0000   1.0000   1.0000   1.0000   1.0000   1.0000
     1.0000   1.0000   1.0000   1.0000   1.0000   1.0000   1.0000   1.0000
     1.0000   1.0000   0.0000   0.0000   0.0000   0.0000

          k = 0.9000 0.3000 0.8218 (  1861 PWs)   bands (ev):

   -40.0011 -39.9732 -16.3204 -16.2275 -16.1336 -16.1273 -15.9829 -15.9413
     3.3369   4.7460   9.1668  10.2812  10.9767  11.6367  12.5529  13.2107
    13.5233  14.2784  15.1733  15.6653  16.7597  17.6985

     occupation numbers 
     1.0000   1.0000   1.0000   1.0000   1.0000   1.0000   1.0000   1.0000
     1.0000   1.0000   1.0000   1.0000   1.0000   1.0000   1.0000   1.0000
     1.0000   1.0000   0.0000   0.0000   0.0000   0.0000

          k = 0.9000 0.4000 0.3815 (  1861 PWs)   bands (ev):

   -39.9938 -39.9720 -16.3813 -16.2305 -16.1563 -16.1234 -15.9806 -15.9572
     3.9559   4.7037   8.9701   9.5993  11.0446  11.5163  12.4902  12.9807
    13.5150  14.2639  15.3655  16.0300  17.0987  17.7288

     occupation numbers 
     1.0000   1.0000   1.0000   1.0000   1.0000   1.0000   1.0000   1.0000
     1.0000   1.0000   1.0000   1.0000   1.0000   1.0000   1.0000   1.0000
     1.0000   1.0000   0.0000   0.0000   0.0000   0.0000

          k = 0.9000 0.4000 0.4989 (  1859 PWs)   bands (ev):

   -39.9905 -39.9754 -16.3832 -16.2236 -16.1364 -16.1187 -16.0024 -15.9657
     4.1224   4.5155   8.9715   9.5292  11.2161  11.7586  12.3899  12.5464
    13.4859  14.2809  15.6385  16.2884  17.0480  17.7113

     occupation numbers 
     1.0000   1.0000   1.0000   1.0000   1.0000   1.0000   1.0000   1.0000
     1.0000   1.0000   1.0000   1.0000   1.0000   1.0000   1.0000   1.0000
     1.0000   1.0000   0.0000   0.0000   0.0000   0.0000

          k = 0.9000 0.4000 0.6163 (  1855 PWs)   bands (ev):

   -39.9891 -39.9768 -16.3847 -16.2170 -16.1345 -16.1150 -16.0127 -15.9661
     4.2281   4.4034   8.9093   9.6181  11.2260  11.8751  12.2353  12.4604
    13.5346  14.2429  15.7429  16.4525  16.9887  17.6806

     occupation numbers 
     1.0000   1.0000   1.0000   1.0000   1.0000   1.0000   1.0000   1.0000
     1.0000   1.0000   1.0000   1.0000   1.0000   1.0000   1.0000   1.0000
     1.0000   1.0000   0.0000   0.0000   0.0000   0.0000

          k = 0.9000 0.4000 0.7337 (  1861 PWs)   bands (ev):

   -39.9923 -39.9736 -16.3817 -16.2299 -16.1436 -16.1223 -15.9887 -15.9634
     4.0259   4.6226   9.0206   9.4822  11.1680  11.6190  12.4664  12.7707
    13.4668  14.2934  15.5013  16.1052  17.0924  17.7650

     occupation numbers 
     1.0000   1.0000   1.0000   1.0000   1.0000   1.0000   1.0000   1.0000
     1.0000   1.0000   1.0000   1.0000   1.0000   1.0000   1.0000   1.0000
     1.0000   1.0000   0.0000   0.0000   0.0000   0.0000

          k = 0.9000 0.4000 0.8511 (  1863 PWs)   bands (ev):

   -39.9946 -39.9712 -16.3818 -16.2271 -16.1672 -16.1234 -15.9784 -15.9513
     3.9193   4.7474   8.9099   9.7509  10.9019  11.4747  12.4986  13.0854
    13.5822  14.2276  15.2743  16.0433  17.0919  17.6233

     occupation numbers 
     1.0000   1.0000   1.0000   1.0000   1.0000   1.0000   1.0000   1.0000
     1.0000   1.0000   1.0000   1.0000   1.0000   1.0000   1.0000   1.0000
     1.0000   1.0000   0.0000   0.0000   0.0000   0.0000

          k = 0.9000 0.5000 0.4109 (  1864 PWs)   bands (ev):

   -39.9902 -39.9724 -16.4063 -16.2442 -16.1440 -16.1195 -15.9899 -15.9620
     4.3550   4.5648   8.7290   9.4022  11.0375  11.7498  12.4401  12.7165
    13.4790  14.2720  15.5117  16.1426  17.4600  17.7195

     occupation numbers 
     1.0000   1.0000   1.0000   1.0000   1.0000   1.0000   1.0000   1.0000
     1.0000   1.0000   1.0000   1.0000   1.0000   1.0000   1.0000   1.0000
     1.0000   1.0000   0.0000   0.0000   0.0000   0.0000

          k = 0.9000 0.5000 0.5283 (  1864 PWs)   bands (ev):

   -39.9902 -39.9724 -16.4073 -16.2398 -16.1479 -16.1201 -15.9890 -15.9618
     4.3537   4.5666   8.6721   9.5046  11.0086  11.7062  12.4371  12.7081
    13.5079  14.2567  15.5001  16.2383  17.4575  17.7108

     occupation numbers 
     1.0000   1.0000   1.0000   1.0000   1.0000   1.0000   1.0000   1.0000
     1.0000   1.0000   1.0000   1.0000   1.0000   1.0000   1.0000   1.0000
     1.0000   1.0000   0.0000   0.0000   0.0000   0.0000

          k = 0.9000 0.5000 0.6457 (  1864 PWs)   bands (ev):

   -39.9902 -39.9724 -16.4073 -16.2398 -16.1479 -16.1201 -15.9890 -15.9618
     4.3537   4.5666   8.6721   9.5046  11.0086  11.7062  12.4371  12.7081
    13.5079  14.2567  15.5001  16.2383  17.4575  17.7108

     occupation numbers 
     1.0000   1.0000   1.0000   1.0000   1.0000   1.0000   1.0000   1.0000
     1.0000   1.0000   1.0000   1.0000   1.0000   1.0000   1.0000   1.0000
     1.0000   1.0000   0.0000   0.0000   0.0000   0.0000

          k = 0.9000 0.5000 0.7631 (  1864 PWs)   bands (ev):

   -39.9902 -39.9724 -16.4063 -16.2442 -16.1440 -16.1195 -15.9899 -15.9620
     4.3550   4.5648   8.7290   9.4022  11.0375  11.7498  12.4401  12.7165
    13.4790  14.2720  15.5117  16.1426  17.4600  17.7195

     occupation numbers 
     1.0000   1.0000   1.0000   1.0000   1.0000   1.0000   1.0000   1.0000
     1.0000   1.0000   1.0000   1.0000   1.0000   1.0000   1.0000   1.0000
     1.0000   1.0000   0.0000   0.0000   0.0000   0.0000

          k = 0.9000 0.5000 0.8805 (  1858 PWs)   bands (ev):

   -39.9901 -39.9724 -16.4078 -16.2370 -16.1505 -16.1205 -15.9883 -15.9616
     4.3530   4.5678   8.6422   9.5647  10.9878  11.6801  12.4371  12.7004
    13.5304  14.2408  15.4990  16.2982  17.4557  17.6930

     occupation numbers 
     1.0000   1.0000   1.0000   1.0000   1.0000   1.0000   1.0000   1.0000
     1.0000   1.0000   1.0000   1.0000   1.0000   1.0000   1.0000   1.0000
     1.0000   1.0000   0.0000   0.0000   0.0000   0.0000

          k = 0.9000 0.6000 0.4402 (  1861 PWs)   bands (ev):

   -39.9923 -39.9736 -16.3817 -16.2299 -16.1436 -16.1223 -15.9887 -15.9634
     4.0259   4.6226   9.0206   9.4822  11.1680  11.6190  12.4664  12.7707
    13.4668  14.2934  15.5013  16.1052  17.0924  17.7650

     occupation numbers 
     1.0000   1.0000   1.0000   1.0000   1.0000   1.0000   1.0000   1.0000
     1.0000   1.0000   1.0000   1.0000   1.0000   1.0000   1.0000   1.0000
     1.0000   1.0000   0.0000   0.0000   0.0000   0.0000

          k = 0.9000 0.6000 0.5576 (  1863 PWs)   bands (ev):

   -39.9946 -39.9712 -16.3818 -16.2271 -16.1672 -16.1234 -15.9784 -15.9513
     3.9193   4.7474   8.9099   9.7509  10.9019  11.4747  12.4986  13.0854
    13.5822  14.2276  15.2743  16.0433  17.0919  17.6233

     occupation numbers 
     1.0000   1.0000   1.0000   1.0000   1.0000   1.0000   1.0000   1.0000
     1.0000   1.0000   1.0000   1.0000   1.0000   1.0000   1.0000   1.0000
     1.0000   1.0000   0.0000   0.0000   0.0000   0.0000

          k = 0.9000 0.6000 0.6750 (  1861 PWs)   bands (ev):

   -39.9938 -39.9720 -16.3813 -16.2305 -16.1563 -16.1234 -15.9807 -15.9572
     3.9559   4.7037   8.9701   9.5993  11.0446  11.5163  12.4902  12.9807
    13.5150  14.2639  15.3655  16.0300  17.0987  17.7288

     occupation numbers 
     1.0000   1.0000   1.0000   1.0000   1.0000   1.0000   1.0000   1.0000
     1.0000   1.0000   1.0000   1.0000   1.0000   1.0000   1.0000   1.0000
     1.0000   1.0000   0.0000   0.0000   0.0000   0.0000

          k = 0.9000 0.6000 0.7924 (  1859 PWs)   bands (ev):

   -39.9905 -39.9754 -16.3832 -16.2236 -16.1364 -16.1187 -16.0024 -15.9657
     4.1224   4.5155   8.9715   9.5292  11.2161  11.7586  12.3899  12.5464
    13.4859  14.2809  15.6385  16.2884  17.0480  17.7113

     occupation numbers 
     1.0000   1.0000   1.0000   1.0000   1.0000   1.0000   1.0000   1.0000
     1.0000   1.0000   1.0000   1.0000   1.0000   1.0000   1.0000   1.0000
     1.0000   1.0000   0.0000   0.0000   0.0000   0.0000

          k = 0.9000 0.6000 0.9098 (  1855 PWs)   bands (ev):

   -39.9891 -39.9768 -16.3847 -16.2170 -16.1345 -16.1150 -16.0127 -15.9661
     4.2281   4.4034   8.9093   9.6181  11.2260  11.8751  12.2353  12.4604
    13.5346  14.2429  15.7429  16.4525  16.9887  17.6806

     occupation numbers 
     1.0000   1.0000   1.0000   1.0000   1.0000   1.0000   1.0000   1.0000
     1.0000   1.0000   1.0000   1.0000   1.0000   1.0000   1.0000   1.0000
     1.0000   1.0000   0.0000   0.0000   0.0000   0.0000

          k = 0.9000 0.7000 0.4696 (  1865 PWs)   bands (ev):

   -39.9991 -39.9752 -16.3186 -16.2194 -16.1327 -16.1214 -15.9842 -15.9575
     3.4231   4.6152   9.3196  10.0904  11.2092  11.6200  12.5071  12.9056
    13.5028  14.3768  15.2288  15.8831  16.7664  17.6539

     occupation numbers 
     1.0000   1.0000   1.0000   1.0000   1.0000   1.0000   1.0000   1.0000
     1.0000   1.0000   1.0000   1.0000   1.0000   1.0000   1.0000   1.0000
     1.0000   1.0000   0.0000   0.0000   0.0000   0.0000

          k = 0.9000 0.7000 0.5870 (  1862 PWs)   bands (ev):

   -40.0017 -39.9726 -16.3216 -16.2294 -16.1355 -16.1282 -15.9830 -15.9351
     3.3076   4.7929   9.1109  10.4040  10.8384  11.6433  12.5675  13.3550
    13.5300  14.2041  15.1640  15.5993  16.7467  17.6613

     occupation numbers 
     1.0000   1.0000   1.0000   1.0000   1.0000   1.0000   1.0000   1.0000
     1.0000   1.0000   1.0000   1.0000   1.0000   1.0000   1.0000   1.0000
     1.0000   1.0000   0.0000   0.0000   0.0000   0.0000

          k = 0.9000 0.7000 0.7044 (  1865 PWs)   bands (ev):

   -39.9991 -39.9752 -16.3186 -16.2194 -16.1327 -16.1214 -15.9842 -15.9575
     3.4231   4.6152   9.3196  10.0904  11.2092  11.6200  12.5071  12.9056
    13.5028  14.3768  15.2288  15.8831  16.7664  17.6539

     occupation numbers 
     1.0000   1.0000   1.0000   1.0000   1.0000   1.0000   1.0000   1.0000
     1.0000   1.0000   1.0000   1.0000   1.0000   1.0000   1.0000   1.0000
     1.0000   1.0000   0.0000   0.0000   0.0000   0.0000

          k = 0.9000 0.7000 0.8218 (  1860 PWs)   bands (ev):

   -39.9927 -39.9817 -16.3203 -16.1825 -16.1325 -16.1036 -16.0239 -15.9721
     3.7378   4.2070   9.6679   9.8966  11.4891  11.6774  12.1107  12.5417
    13.5089  14.3078  15.7282  16.3663  16.6393  17.5391

     occupation numbers 
     1.0000   1.0000   1.0000   1.0000   1.0000   1.0000   1.0000   1.0000
     1.0000   1.0000   1.0000   1.0000   1.0000   1.0000   1.0000   1.0000
     1.0000   1.0000   0.0000   0.0000   0.0000   0.0000

          k = 0.9000 0.7000 0.9392 (  1860 PWs)   bands (ev):

   -39.9927 -39.9817 -16.3203 -16.1825 -16.1325 -16.1036 -16.0239 -15.9721
     3.7378   4.2070   9.6679   9.8966  11.4891  11.6774  12.1107  12.5417
    13.5089  14.3078  15.7282  16.3663  16.6393  17.5391

     occupation numbers 
     1.0000   1.0000   1.0000   1.0000   1.0000   1.0000   1.0000   1.0000
     1.0000   1.0000   1.0000   1.0000   1.0000   1.0000   1.0000   1.0000
     1.0000   1.0000   0.0000   0.0000   0.0000   0.0000

          k = 0.9000 0.8000 0.4989 (  1862 PWs)   bands (ev):

   -40.0074 -39.9774 -16.2757 -16.2060 -16.1389 -16.0594 -15.9902 -15.9423
     2.8394   4.5738   9.1965  10.9386  11.4666  12.0273  12.4215  12.9405
    13.6273  14.1814  15.1481  15.6409  16.9202  17.8570

     occupation numbers 
     1.0000   1.0000   1.0000   1.0000   1.0000   1.0000   1.0000   1.0000
     1.0000   1.0000   1.0000   1.0000   1.0000   1.0000   1.0000   1.0000
     1.0000   1.0000   0.0000   0.0000   0.0000   0.0000

          k = 0.9000 0.8000 0.6163 (  1860 PWs)   bands (ev):

   -40.0090 -39.9758 -16.2883 -16.2055 -16.1377 -16.0618 -15.9912 -15.9273
     2.7663   4.7103   9.0189  10.9858  11.4476  12.0478  12.5076  13.1245
    13.6712  14.0417  15.1262  15.4747  16.9101  17.7719

     occupation numbers 
     1.0000   1.0000   1.0000   1.0000   1.0000   1.0000   1.0000   1.0000
     1.0000   1.0000   1.0000   1.0000   1.0000   1.0000   1.0000   1.0000
     1.0000   1.0000   0.0000   0.0000   0.0000   0.0000

          k = 0.9000 0.8000 0.7337 (  1864 PWs)   bands (ev):

   -40.0043 -39.9805 -16.2559 -16.2020 -16.1404 -16.0566 -15.9915 -15.9673
     2.9818   4.3364   9.5117  10.8747  11.4420  12.0184  12.2348  12.7556
    13.5730  14.2496  15.2851  15.9537  16.8734  17.8564

     occupation numbers 
     1.0000   1.0000   1.0000   1.0000   1.0000   1.0000   1.0000   1.0000
     1.0000   1.0000   1.0000   1.0000   1.0000   1.0000   1.0000   1.0000
     1.0000   1.0000   0.0000   0.0000   0.0000   0.0000

          k = 0.9000 0.8000 0.8511 (  1869 PWs)   bands (ev):

   -39.9953 -39.9895 -16.2394 -16.1639 -16.1234 -16.0818 -16.0279 -15.9794
     3.4397   3.7409  10.2826  10.6880  11.2219  11.6982  12.1923  12.6012
    13.4790  14.1695  15.8949  16.4142  16.7259  17.4657

     occupation numbers 
     1.0000   1.0000   1.0000   1.0000   1.0000   1.0000   1.0000   1.0000
     1.0000   1.0000   1.0000   1.0000   1.0000   1.0000   1.0000   1.0000
     1.0000   1.0000   0.0000   0.0000   0.0000   0.0000

          k = 0.9000 0.8000 0.9685 (  1866 PWs)   bands (ev):

   -40.0001 -39.9847 -16.2426 -16.1839 -16.1391 -16.0593 -16.0110 -15.9790
     3.1863   4.0449   9.9039  10.8038  11.3448  11.8844  12.1418  12.6544
    13.5158  14.2155  15.5686  16.3401  16.7071  17.7019

     occupation numbers 
     1.0000   1.0000   1.0000   1.0000   1.0000   1.0000   1.0000   1.0000
     1.0000   1.0000   1.0000   1.0000   1.0000   1.0000   1.0000   1.0000
     1.0000   1.0000   0.0000   0.0000   0.0000   0.0000

          k = 0.9000 0.9000 0.5283 (  1864 PWs)   bands (ev):

   -40.0139 -39.9793 -16.2943 -16.1492 -16.1416 -16.0018 -15.9944 -15.9313
     2.4259   4.5534   8.9150  11.3910  12.2949  12.3559  12.3670  12.9404
    13.6180  13.7868  15.3303  15.8196  17.4386  17.5760

     occupation numbers 
     1.0000   1.0000   1.0000   1.0000   1.0000   1.0000   1.0000   1.0000
     1.0000   1.0000   1.0000   1.0000   1.0000   1.0000   1.0000   1.0000
     1.0000   1.0000   0.0000   0.0000   0.0000   0.0000

          k = 0.9000 0.9000 0.6457 (  1864 PWs)   bands (ev):

   -40.0139 -39.9793 -16.2943 -16.1492 -16.1416 -16.0018 -15.9943 -15.9313
     2.4259   4.5534   8.9150  11.3910  12.2949  12.3559  12.3670  12.9404
    13.6180  13.7868  15.3303  15.8196  17.4386  17.5760

     occupation numbers 
     1.0000   1.0000   1.0000   1.0000   1.0000   1.0000   1.0000   1.0000
     1.0000   1.0000   1.0000   1.0000   1.0000   1.0000   1.0000   1.0000
     1.0000   1.0000   0.0000   0.0000   0.0000   0.0000

          k = 0.9000 0.9000 0.7631 (  1852 PWs)   bands (ev):

   -40.0073 -39.9859 -16.2327 -16.1558 -16.1435 -16.0151 -15.9888 -15.9791
     2.7417   4.0053   9.6915  11.3518  11.8371  11.9110  12.3677  12.7143
    13.7380  13.9635  15.8270  15.9319  17.2228  17.3763

     occupation numbers 
     1.0000   1.0000   1.0000   1.0000   1.0000   1.0000   1.0000   1.0000
     1.0000   1.0000   1.0000   1.0000   1.0000   1.0000   1.0000   1.0000
     1.0000   1.0000   0.0000   0.0000   0.0000   0.0000

          k = 0.9000 0.9000 0.8805 (  1864 PWs)   bands (ev):

   -39.9966 -39.9966 -16.1674 -16.1674 -16.1061 -16.1061 -15.9851 -15.9851
     3.3125   3.3125  10.7682  10.7682  11.5812  11.5812  12.4780  12.4780
    13.8962  13.8962  16.2933  16.2933  16.8740  16.8740

     occupation numbers 
     1.0000   1.0000   1.0000   1.0000   1.0000   1.0000   1.0000   1.0000
     1.0000   1.0000   1.0000   1.0000   1.0000   1.0000   1.0000   1.0000
     1.0000   1.0000   0.0000   0.0000   0.0000   0.0000

          k = 0.9000 0.9000 0.9979 (  1852 PWs)   bands (ev):

   -40.0073 -39.9859 -16.2327 -16.1558 -16.1435 -16.0151 -15.9888 -15.9791
     2.7417   4.0053   9.6915  11.3518  11.8371  11.9110  12.3677  12.7143
    13.7380  13.9635  15.8270  15.9319  17.2228  17.3763

     occupation numbers 
     1.0000   1.0000   1.0000   1.0000   1.0000   1.0000   1.0000   1.0000
     1.0000   1.0000   1.0000   1.0000   1.0000   1.0000   1.0000   1.0000
     1.0000   1.0000   0.0000   0.0000   0.0000   0.0000

     the Fermi energy is    14.8186 ev
     (compare with:    14.8185 eV, computed in scf)

     Writing all to output data dir ./out/NbP_bulk.save/
 
     init_run     :      0.96s CPU      1.03s WALL (       1 calls)
     electrons    :    249.07s CPU    251.75s WALL (       1 calls)

     Called by init_run:
     wfcinit      :      0.00s CPU      0.00s WALL (       1 calls)
     wfcinit:atom :      0.15s CPU      0.16s WALL (     500 calls)
     wfcinit:wfcr :      6.89s CPU      7.02s WALL (     500 calls)
     potinit      :      0.27s CPU      0.28s WALL (       1 calls)
     hinit0       :      0.48s CPU      0.48s WALL (       1 calls)

     Called by electrons:
     c_bands      :    249.05s CPU    251.72s WALL (       1 calls)
     v_of_rho     :      0.03s CPU      0.04s WALL (       1 calls)
     v_h          :      0.00s CPU      0.00s WALL (       1 calls)
     v_xc         :      0.03s CPU      0.04s WALL (       1 calls)
     newd         :      0.10s CPU      0.15s WALL (       1 calls)
     PAW_pot      :      0.24s CPU      0.24s WALL (       1 calls)

     Called by c_bands:
     init_us_2    :      0.21s CPU      0.23s WALL (     500 calls)
     init_us_2:cp :      0.21s CPU      0.23s WALL (     500 calls)
     cegterg      :    238.13s CPU    239.81s WALL (    1844 calls)

     Called by sum_band:

     Called by *egterg:
     cdiaghg      :     14.55s CPU     14.67s WALL (   32658 calls)
     cegterg:over :     10.49s CPU     10.59s WALL (   32158 calls)
     cegterg:upda :      5.68s CPU      5.74s WALL (   32158 calls)
     cegterg:last :     12.31s CPU     12.40s WALL (   18431 calls)
     h_psi        :    188.08s CPU    189.48s WALL (   34502 calls)
     s_psi        :      8.80s CPU      8.88s WALL (   34502 calls)
     g_psi        :      1.54s CPU      1.55s WALL (   32158 calls)

     Called by h_psi:
     h_psi:calbec :      8.76s CPU      8.83s WALL (   34502 calls)
     vloc_psi     :    169.61s CPU    170.86s WALL (   34502 calls)
     add_vuspsi   :      8.79s CPU      8.88s WALL (   34502 calls)

     General routines
     calbec       :      8.68s CPU      8.77s WALL (   34502 calls)
     fft          :      0.01s CPU      0.02s WALL (      13 calls)
     ffts         :      0.00s CPU      0.00s WALL (       1 calls)
     fftw         :    122.96s CPU    123.69s WALL (  827692 calls)
     interpolate  :      0.00s CPU      0.00s WALL (       1 calls)
     davcio       :      0.13s CPU      0.90s WALL (    1000 calls)
 
     Parallel routines

     PAW routines
     PAW_pot      :      0.24s CPU      0.24s WALL (       1 calls)
 
     PWSCF        :   4m10.40s CPU   4m16.87s WALL

 
   This run was terminated on:  11:41:53  19Feb2024            

=------------------------------------------------------------------------------=
   JOB DONE.
=------------------------------------------------------------------------------=
