
     Program PWSCF v.7.2 starts on  5Sep2024 at 13:50:54 

     This program is part of the open-source Quantum ESPRESSO suite
     for quantum simulation of materials; please cite
         "P. Giannozzi et al., J. Phys.:Condens. Matter 21 395502 (2009);
         "P. Giannozzi et al., J. Phys.:Condens. Matter 29 465901 (2017);
         "P. Giannozzi et al., J. Chem. Phys. 152 154105 (2020);
          URL http://www.quantum-espresso.org", 
     in publications or presentations arising from this work. More details at
     http://www.quantum-espresso.org/quote

     Parallel version (MPI), running on     1 processors

     MPI processes distributed on     1 nodes
     1640 MiB available memory on the printing compute node when the environment starts

     Waiting for input...
     Reading input from standard input

     Current dimensions of program PWSCF are:
     Max number of different atomic species (ntypx) = 10
     Max number of k-points (npk) =  40000
     Max angular momentum in pseudopotentials (lmaxx) =  4
     file Nb.pbesol-spn-kjpaw_psl.0.3.0.UPF: wavefunction(s)  4S 4P renormalized
     Message from routine setup:
     using ibrav=0 with symmetry is DISCOURAGED, use correct ibrav instead

     Subspace diagonalization in iterative solution of the eigenvalue problem:
     a serial algorithm will be used


     G-vector sticks info
     --------------------
     sticks:   dense  smooth     PW     G-vecs:    dense   smooth      PW
     Sum        2469    1233    465                41977    14855    3419

     Using Slab Decomposition



     bravais-lattice index     =            0
     lattice parameter (alat)  =      11.6997  a.u.
     unit-cell volume          =     434.7255 (a.u.)^3
     number of atoms/cell      =            4
     number of atomic types    =            2
     number of electrons       =        36.00
     number of Kohn-Sham states=           22
     kinetic-energy cutoff     =      40.0000  Ry
     charge density cutoff     =     320.0000  Ry
     scf convergence threshold =      8.0E-10
     mixing beta               =       0.4000
     number of iterations used =            8  plain     mixing
     Exchange-correlation= PBESOL
                           (   1   4  10   8   0   0   0)

     celldm(1)=  11.699669  celldm(2)=   0.000000  celldm(3)=   0.000000
     celldm(4)=   0.000000  celldm(5)=   0.000000  celldm(6)=   0.000000

     crystal axes: (cart. coord. in units of alat)
               a(1) = (  -0.271065   0.271065   0.923606 )  
               a(2) = (   0.271065  -0.271065   0.923606 )  
               a(3) = (   0.271065   0.271065  -0.923606 )  

     reciprocal axes: (cart. coord. in units 2 pi/alat)
               b(1) = (  0.000000  1.844574  0.541357 )  
               b(2) = (  1.844574  0.000000  0.541357 )  
               b(3) = (  1.844574  1.844574  0.000000 )  


     PseudoPot. # 1 for Nb read from file:
     ./pseudo/Nb.pbesol-spn-kjpaw_psl.0.3.0.UPF
     MD5 check sum: 3501bca1474143575298708b2d32ca28
     Pseudo is Projector augmented-wave + core cor, Zval = 13.0
     Generated using "atomic" code by A. Dal Corso  v.6.0 svn rev. 13079
     Shape of augmentation charge: PSQ
     Using radial grid of 1227 points,  6 beta functions with: 
                l(1) =   0
                l(2) =   0
                l(3) =   1
                l(4) =   1
                l(5) =   2
                l(6) =   2
     Q(r) pseudized with 0 coefficients 


     PseudoPot. # 2 for P  read from file:
     ./pseudo/P.pbesol-n-rrkjus_psl.1.0.0.UPF
     MD5 check sum: bbb94b1b16383820d6a769669b5d42db
     Pseudo is Ultrasoft + core correction, Zval =  5.0
     Generated using "atomic" code by A. Dal Corso  v.6.0 svn rev. 13079
     Using radial grid of 1147 points,  6 beta functions with: 
                l(1) =   0
                l(2) =   0
                l(3) =   1
                l(4) =   1
                l(5) =   2
                l(6) =   2
     Q(r) pseudized with 0 coefficients 


     atomic species   valence    mass     pseudopotential
        Nb            13.00    92.90638     Nb( 1.00)
        P              5.00    30.97376     P ( 1.00)

     Starting magnetic structure 
     atomic species   magnetization
        Nb           0.385
        P            0.100

      8 Sym. Ops. (no inversion) found ( 4 have fractional translation)


                                    s                        frac. trans.

      isym =  1     identity                                     

 cryst.   s( 1) = (     1          0          0      )
                  (     0          1          0      )
                  (     0          0          1      )

 cart.    s( 1) = (  1.0000000  0.0000000  0.0000000 )
                  (  0.0000000  1.0000000  0.0000000 )
                  (  0.0000000  0.0000000  1.0000000 )


      isym =  2     180 deg rotation - cart. axis [0,0,1]        

 cryst.   s( 2) = (     0          1          0      )
                  (     1          0          0      )
                  (    -1         -1         -1      )

 cart.    s( 2) = ( -1.0000000  0.0000000  0.0000000 )
                  (  0.0000000 -1.0000000  0.0000000 )
                  (  0.0000000  0.0000000  1.0000000 )


      isym =  3      90 deg rotation - cart. axis [0,0,-1]       

 cryst.   s( 3) = (     1          1          1      )    f =(  0.2500000 )
                  (     0          0         -1      )       ( -0.2500000 )
                  (    -1          0          0      )       (  0.5000000 )

 cart.    s( 3) = (  0.0000000  1.0000000  0.0000000 )    f =(  0.0000000 )
                  ( -1.0000000  0.0000000  0.0000000 )       (  0.2710653 )
                  (  0.0000000  0.0000000  1.0000000 )       ( -0.4618028 )


      isym =  4      90 deg rotation - cart. axis [0,0,1]        

 cryst.   s( 4) = (     0          0         -1      )    f =(  0.2500000 )
                  (     1          1          1      )       ( -0.2500000 )
                  (     0         -1          0      )       (  0.5000000 )

 cart.    s( 4) = (  0.0000000 -1.0000000  0.0000000 )    f =(  0.0000000 )
                  (  1.0000000  0.0000000  0.0000000 )       (  0.2710653 )
                  (  0.0000000  0.0000000  1.0000000 )       ( -0.4618028 )


      isym =  5     inv. 180 deg rotation - cart. axis [0,1,0]   

 cryst.   s( 5) = (     0          0         -1      )
                  (     1          1          1      )
                  (    -1          0          0      )

 cart.    s( 5) = (  1.0000000  0.0000000  0.0000000 )
                  (  0.0000000 -1.0000000  0.0000000 )
                  (  0.0000000  0.0000000  1.0000000 )


      isym =  6     inv. 180 deg rotation - cart. axis [1,0,0]   

 cryst.   s( 6) = (     1          1          1      )
                  (     0          0         -1      )
                  (     0         -1          0      )

 cart.    s( 6) = ( -1.0000000  0.0000000  0.0000000 )
                  (  0.0000000  1.0000000  0.0000000 )
                  (  0.0000000  0.0000000  1.0000000 )


      isym =  7     inv. 180 deg rotation - cart. axis [1,1,0]   

 cryst.   s( 7) = (     1          0          0      )    f =(  0.2500000 )
                  (     0          1          0      )       ( -0.2500000 )
                  (    -1         -1         -1      )       (  0.5000000 )

 cart.    s( 7) = (  0.0000000 -1.0000000  0.0000000 )    f =(  0.0000000 )
                  ( -1.0000000  0.0000000  0.0000000 )       (  0.2710653 )
                  (  0.0000000  0.0000000  1.0000000 )       ( -0.4618028 )


      isym =  8     inv. 180 deg rotation - cart. axis [1,-1,0]  

 cryst.   s( 8) = (     0          1          0      )    f =(  0.2500000 )
                  (     1          0          0      )       ( -0.2500000 )
                  (     0          0          1      )       (  0.5000000 )

 cart.    s( 8) = (  0.0000000  1.0000000  0.0000000 )    f =(  0.0000000 )
                  (  1.0000000  0.0000000  0.0000000 )       (  0.2710653 )
                  (  0.0000000  0.0000000  1.0000000 )       ( -0.4618028 )


   Cartesian axes

     site n.     atom                  positions (alat units)
         1           Nb  tau(   1) = (   0.0000000   0.2710653   0.9234633  )
         2           Nb  tau(   2) = (  -0.0000000   0.0000000   0.4616605  )
         3           P   tau(   3) = (   0.2710653   0.0000000   0.7711127  )
         4           P   tau(   4) = (   0.2710653   0.2710653   0.3093100  )

   Crystallographic axes

     site n.     atom                  positions (cryst. coord.)
         1           Nb  tau(   1) = (  0.9999230  0.4999230  0.5000000  )
         2           Nb  tau(   2) = (  0.2499230  0.2499230  0.0000000  )
         3           P   tau(   3) = (  0.4174470  0.9174470  0.5000000  )
         4           P   tau(   4) = (  0.6674470  0.6674470  1.0000000  )

     number of k points=   411  Marzari-Vanderbilt smearing, width (Ry)=  0.0073
                       cart. coord. in units 2pi/alat
        k(    1) = (   0.0000000   0.0000000   0.0000000), wk =   0.0006378
        k(    2) = (   0.2305717   0.2305717   0.0000000), wk =   0.0012755
        k(    3) = (   0.4611435   0.4611435   0.0000000), wk =   0.0012755
        k(    4) = (   0.6917152   0.6917152   0.0000000), wk =   0.0012755
        k(    5) = (  -0.9222870  -0.9222870   0.0000000), wk =   0.0012755
        k(    6) = (   0.1317553   0.0000000   0.0386683), wk =   0.0025510
        k(    7) = (   0.3623270   0.2305717   0.0386683), wk =   0.0025510
        k(    8) = (   0.5928988   0.4611435   0.0386683), wk =   0.0025510
        k(    9) = (   0.8234705   0.6917152   0.0386683), wk =   0.0025510
        k(   10) = (  -0.7905317  -0.9222870   0.0386683), wk =   0.0051020
        k(   11) = (  -0.5599600  -0.6917152   0.0386683), wk =   0.0025510
        k(   12) = (  -0.3293882  -0.4611435   0.0386683), wk =   0.0025510
        k(   13) = (  -0.0988165  -0.2305717   0.0386683), wk =   0.0025510
        k(   14) = (   0.2635106   0.0000000   0.0773367), wk =   0.0025510
        k(   15) = (   0.4940823   0.2305717   0.0773367), wk =   0.0025510
        k(   16) = (   0.7246541   0.4611435   0.0773367), wk =   0.0025510
        k(   17) = (   0.9552258   0.6917152   0.0773367), wk =   0.0025510
        k(   18) = (  -0.6587764  -0.9222870   0.0773367), wk =   0.0051020
        k(   19) = (  -0.4282047  -0.6917152   0.0773367), wk =   0.0025510
        k(   20) = (  -0.1976329  -0.4611435   0.0773367), wk =   0.0025510
        k(   21) = (   0.0329388  -0.2305717   0.0773367), wk =   0.0025510
        k(   22) = (   0.3952659   0.0000000   0.1160050), wk =   0.0025510
        k(   23) = (   0.6258376   0.2305717   0.1160050), wk =   0.0025510
        k(   24) = (   0.8564093   0.4611435   0.1160050), wk =   0.0025510
        k(   25) = (   1.0869811   0.6917152   0.1160050), wk =   0.0025510
        k(   26) = (  -0.5270211  -0.9222870   0.1160050), wk =   0.0051020
        k(   27) = (  -0.2964494  -0.6917152   0.1160050), wk =   0.0025510
        k(   28) = (  -0.0658776  -0.4611435   0.1160050), wk =   0.0025510
        k(   29) = (   0.1646941  -0.2305717   0.1160050), wk =   0.0025510
        k(   30) = (   0.5270211   0.0000000   0.1546733), wk =   0.0025510
        k(   31) = (   0.7575929   0.2305717   0.1546733), wk =   0.0025510
        k(   32) = (   0.9881646   0.4611435   0.1546733), wk =   0.0025510
        k(   33) = (   1.2187364   0.6917152   0.1546733), wk =   0.0025510
        k(   34) = (  -0.3952659  -0.9222870   0.1546733), wk =   0.0051020
        k(   35) = (  -0.1646941  -0.6917152   0.1546733), wk =   0.0025510
        k(   36) = (   0.0658776  -0.4611435   0.1546733), wk =   0.0025510
        k(   37) = (   0.2964494  -0.2305717   0.1546733), wk =   0.0025510
        k(   38) = (   0.6587764   0.0000000   0.1933417), wk =   0.0025510
        k(   39) = (   0.8893482   0.2305717   0.1933417), wk =   0.0025510
        k(   40) = (   1.1199199   0.4611435   0.1933417), wk =   0.0025510
        k(   41) = (   1.3504917   0.6917152   0.1933417), wk =   0.0025510
        k(   42) = (  -0.2635106  -0.9222870   0.1933417), wk =   0.0051020
        k(   43) = (  -0.0329388  -0.6917152   0.1933417), wk =   0.0025510
        k(   44) = (   0.1976329  -0.4611435   0.1933417), wk =   0.0025510
        k(   45) = (   0.4282047  -0.2305717   0.1933417), wk =   0.0025510
        k(   46) = (   0.7905317   0.0000000   0.2320100), wk =   0.0025510
        k(   47) = (   1.0211035   0.2305717   0.2320100), wk =   0.0025510
        k(   48) = (   1.2516752   0.4611435   0.2320100), wk =   0.0025510
        k(   49) = (   1.4822469   0.6917152   0.2320100), wk =   0.0025510
        k(   50) = (  -0.1317553  -0.9222870   0.2320100), wk =   0.0051020
        k(   51) = (   0.0988165  -0.6917152   0.2320100), wk =   0.0025510
        k(   52) = (   0.3293882  -0.4611435   0.2320100), wk =   0.0025510
        k(   53) = (   0.5599600  -0.2305717   0.2320100), wk =   0.0025510
        k(   54) = (  -0.9222870   0.0000000  -0.2706783), wk =   0.0025510
        k(   55) = (  -0.6917152   0.2305717  -0.2706783), wk =   0.0051020
        k(   56) = (  -0.4611435   0.4611435  -0.2706783), wk =   0.0025510
        k(   57) = (   0.1317553   0.1317553   0.0773367), wk =   0.0012755
        k(   58) = (   0.3623270   0.3623270   0.0773367), wk =   0.0012755
        k(   59) = (   0.5928988   0.5928988   0.0773367), wk =   0.0012755
        k(   60) = (   0.8234705   0.8234705   0.0773367), wk =   0.0012755
        k(   61) = (  -0.7905317  -0.7905317   0.0773367), wk =   0.0012755
        k(   62) = (  -0.5599600  -0.5599600   0.0773367), wk =   0.0012755
        k(   63) = (  -0.3293882  -0.3293882   0.0773367), wk =   0.0012755
        k(   64) = (  -0.0988165  -0.0988165   0.0773367), wk =   0.0012755
        k(   65) = (   0.2635106   0.1317553   0.1160050), wk =   0.0025510
        k(   66) = (   0.4940823   0.3623270   0.1160050), wk =   0.0025510
        k(   67) = (   0.7246541   0.5928988   0.1160050), wk =   0.0025510
        k(   68) = (   0.9552258   0.8234705   0.1160050), wk =   0.0025510
        k(   69) = (  -0.6587764  -0.7905317   0.1160050), wk =   0.0025510
        k(   70) = (  -0.4282047  -0.5599600   0.1160050), wk =   0.0025510
        k(   71) = (  -0.1976329  -0.3293882   0.1160050), wk =   0.0025510
        k(   72) = (   0.0329388  -0.0988165   0.1160050), wk =   0.0025510
        k(   73) = (   0.3952659   0.1317553   0.1546733), wk =   0.0025510
        k(   74) = (   0.6258376   0.3623270   0.1546733), wk =   0.0025510
        k(   75) = (   0.8564093   0.5928988   0.1546733), wk =   0.0025510
        k(   76) = (   1.0869811   0.8234705   0.1546733), wk =   0.0025510
        k(   77) = (  -0.5270211  -0.7905317   0.1546733), wk =   0.0025510
        k(   78) = (  -0.2964494  -0.5599600   0.1546733), wk =   0.0025510
        k(   79) = (  -0.0658776  -0.3293882   0.1546733), wk =   0.0025510
        k(   80) = (   0.1646941  -0.0988165   0.1546733), wk =   0.0025510
        k(   81) = (   0.5270211   0.1317553   0.1933417), wk =   0.0025510
        k(   82) = (   0.7575929   0.3623270   0.1933417), wk =   0.0025510
        k(   83) = (   0.9881646   0.5928988   0.1933417), wk =   0.0025510
        k(   84) = (   1.2187364   0.8234705   0.1933417), wk =   0.0025510
        k(   85) = (  -0.3952659  -0.7905317   0.1933417), wk =   0.0025510
        k(   86) = (  -0.1646941  -0.5599600   0.1933417), wk =   0.0025510
        k(   87) = (   0.0658776  -0.3293882   0.1933417), wk =   0.0025510
        k(   88) = (   0.2964494  -0.0988165   0.1933417), wk =   0.0025510
        k(   89) = (   0.6587764   0.1317553   0.2320100), wk =   0.0025510
        k(   90) = (   0.8893482   0.3623270   0.2320100), wk =   0.0025510
        k(   91) = (   1.1199199   0.5928988   0.2320100), wk =   0.0025510
        k(   92) = (   1.3504917   0.8234705   0.2320100), wk =   0.0025510
        k(   93) = (  -0.2635106  -0.7905317   0.2320100), wk =   0.0025510
        k(   94) = (  -0.0329388  -0.5599600   0.2320100), wk =   0.0025510
        k(   95) = (   0.1976329  -0.3293882   0.2320100), wk =   0.0025510
        k(   96) = (   0.4282047  -0.0988165   0.2320100), wk =   0.0025510
        k(   97) = (   0.7905317   0.1317553   0.2706783), wk =   0.0051020
        k(   98) = (   1.0211035   0.3623270   0.2706783), wk =   0.0051020
        k(   99) = (   1.2516752   0.5928988   0.2706783), wk =   0.0025510
        k(  100) = (   0.0988165  -0.5599600   0.2706783), wk =   0.0051020
        k(  101) = (   0.3293882  -0.3293882   0.2706783), wk =   0.0025510
        k(  102) = (  -0.6917152   0.3623270  -0.2320100), wk =   0.0025510
        k(  103) = (  -0.4611435   0.5928988  -0.2320100), wk =   0.0025510
        k(  104) = (  -0.2305717   0.8234705  -0.2320100), wk =   0.0025510
        k(  105) = (  -1.8445740  -0.7905317  -0.2320100), wk =   0.0025510
        k(  106) = (  -1.6140022  -0.5599600  -0.2320100), wk =   0.0025510
        k(  107) = (  -1.3834305  -0.3293882  -0.2320100), wk =   0.0025510
        k(  108) = (  -1.1528587  -0.0988165  -0.2320100), wk =   0.0025510
        k(  109) = (  -0.7905317   0.1317553  -0.1933417), wk =   0.0025510
        k(  110) = (  -0.5599600   0.3623270  -0.1933417), wk =   0.0025510
        k(  111) = (  -0.3293882   0.5928988  -0.1933417), wk =   0.0025510
        k(  112) = (  -0.0988165   0.8234705  -0.1933417), wk =   0.0025510
        k(  113) = (  -1.7128187  -0.7905317  -0.1933417), wk =   0.0025510
        k(  114) = (  -1.4822469  -0.5599600  -0.1933417), wk =   0.0025510
        k(  115) = (  -1.2516752  -0.3293882  -0.1933417), wk =   0.0025510
        k(  116) = (  -1.0211035  -0.0988165  -0.1933417), wk =   0.0025510
        k(  117) = (  -0.6587764   0.1317553  -0.1546733), wk =   0.0025510
        k(  118) = (  -0.4282047   0.3623270  -0.1546733), wk =   0.0025510
        k(  119) = (  -0.1976329   0.5928988  -0.1546733), wk =   0.0025510
        k(  120) = (   0.0329388   0.8234705  -0.1546733), wk =   0.0025510
        k(  121) = (  -1.5810634  -0.7905317  -0.1546733), wk =   0.0025510
        k(  122) = (  -1.3504917  -0.5599600  -0.1546733), wk =   0.0025510
        k(  123) = (  -1.1199199  -0.3293882  -0.1546733), wk =   0.0025510
        k(  124) = (  -0.8893482  -0.0988165  -0.1546733), wk =   0.0025510
        k(  125) = (  -0.5270211   0.1317553  -0.1160050), wk =   0.0025510
        k(  126) = (  -0.2964494   0.3623270  -0.1160050), wk =   0.0025510
        k(  127) = (  -0.0658776   0.5928988  -0.1160050), wk =   0.0025510
        k(  128) = (   0.1646941   0.8234705  -0.1160050), wk =   0.0025510
        k(  129) = (  -1.4493081  -0.7905317  -0.1160050), wk =   0.0025510
        k(  130) = (  -1.2187364  -0.5599600  -0.1160050), wk =   0.0025510
        k(  131) = (  -0.9881646  -0.3293882  -0.1160050), wk =   0.0025510
        k(  132) = (  -0.7575929  -0.0988165  -0.1160050), wk =   0.0025510
        k(  133) = (  -0.3952659   0.1317553  -0.0773367), wk =   0.0025510
        k(  134) = (  -0.1646941   0.3623270  -0.0773367), wk =   0.0025510
        k(  135) = (   0.0658776   0.5928988  -0.0773367), wk =   0.0025510
        k(  136) = (   0.2964494   0.8234705  -0.0773367), wk =   0.0025510
        k(  137) = (  -1.3175528  -0.7905317  -0.0773367), wk =   0.0025510
        k(  138) = (  -1.0869811  -0.5599600  -0.0773367), wk =   0.0025510
        k(  139) = (  -0.8564093  -0.3293882  -0.0773367), wk =   0.0025510
        k(  140) = (  -0.6258376  -0.0988165  -0.0773367), wk =   0.0025510
        k(  141) = (  -0.2635106   0.1317553  -0.0386683), wk =   0.0025510
        k(  142) = (  -0.0329388   0.3623270  -0.0386683), wk =   0.0025510
        k(  143) = (   0.1976329   0.5928988  -0.0386683), wk =   0.0025510
        k(  144) = (   0.4282047   0.8234705  -0.0386683), wk =   0.0025510
        k(  145) = (  -1.1857976  -0.7905317  -0.0386683), wk =   0.0025510
        k(  146) = (  -0.9552258  -0.5599600  -0.0386683), wk =   0.0025510
        k(  147) = (  -0.7246541  -0.3293882  -0.0386683), wk =   0.0025510
        k(  148) = (  -0.4940823  -0.0988165  -0.0386683), wk =   0.0025510
        k(  149) = (  -0.1317553   0.1317553   0.0000000), wk =   0.0012755
        k(  150) = (   0.0988165   0.3623270   0.0000000), wk =   0.0025510
        k(  151) = (   0.3293882   0.5928988   0.0000000), wk =   0.0025510
        k(  152) = (   0.5599600   0.8234705   0.0000000), wk =   0.0025510
        k(  153) = (  -1.0540423  -0.7905317   0.0000000), wk =   0.0012755
        k(  154) = (   0.2635106   0.2635106   0.1546733), wk =   0.0012755
        k(  155) = (   0.4940823   0.4940823   0.1546733), wk =   0.0012755
        k(  156) = (   0.7246541   0.7246541   0.1546733), wk =   0.0012755
        k(  157) = (   0.9552258   0.9552258   0.1546733), wk =   0.0012755
        k(  158) = (  -0.6587764  -0.6587764   0.1546733), wk =   0.0012755
        k(  159) = (  -0.4282047  -0.4282047   0.1546733), wk =   0.0012755
        k(  160) = (  -0.1976329  -0.1976329   0.1546733), wk =   0.0012755
        k(  161) = (   0.0329388   0.0329388   0.1546733), wk =   0.0012755
        k(  162) = (   0.3952659   0.2635106   0.1933417), wk =   0.0025510
        k(  163) = (   0.6258376   0.4940823   0.1933417), wk =   0.0025510
        k(  164) = (   0.8564093   0.7246541   0.1933417), wk =   0.0025510
        k(  165) = (   1.0869811   0.9552258   0.1933417), wk =   0.0025510
        k(  166) = (  -0.5270211  -0.6587764   0.1933417), wk =   0.0025510
        k(  167) = (  -0.2964494  -0.4282047   0.1933417), wk =   0.0025510
        k(  168) = (  -0.0658776  -0.1976329   0.1933417), wk =   0.0025510
        k(  169) = (   0.1646941   0.0329388   0.1933417), wk =   0.0025510
        k(  170) = (   0.5270211   0.2635106   0.2320100), wk =   0.0025510
        k(  171) = (   0.7575929   0.4940823   0.2320100), wk =   0.0025510
        k(  172) = (   0.9881646   0.7246541   0.2320100), wk =   0.0025510
        k(  173) = (   1.2187364   0.9552258   0.2320100), wk =   0.0025510
        k(  174) = (  -0.3952659  -0.6587764   0.2320100), wk =   0.0025510
        k(  175) = (  -0.1646941  -0.4282047   0.2320100), wk =   0.0025510
        k(  176) = (   0.0658776  -0.1976329   0.2320100), wk =   0.0025510
        k(  177) = (   0.2964494   0.0329388   0.2320100), wk =   0.0025510
        k(  178) = (   0.6587764   0.2635106   0.2706783), wk =   0.0051020
        k(  179) = (   0.8893482   0.4940823   0.2706783), wk =   0.0051020
        k(  180) = (   1.1199199   0.7246541   0.2706783), wk =   0.0025510
        k(  181) = (  -0.0329388  -0.4282047   0.2706783), wk =   0.0051020
        k(  182) = (   0.1976329  -0.1976329   0.2706783), wk =   0.0025510
        k(  183) = (   0.7905317   0.2635106   0.3093467), wk =   0.0025510
        k(  184) = (   1.0211035   0.4940823   0.3093467), wk =   0.0025510
        k(  185) = (   1.2516752   0.7246541   0.3093467), wk =   0.0025510
        k(  186) = (   1.4822469   0.9552258   0.3093467), wk =   0.0025510
        k(  187) = (  -0.1317553  -0.6587764   0.3093467), wk =   0.0025510
        k(  188) = (   0.0988165  -0.4282047   0.3093467), wk =   0.0025510
        k(  189) = (   0.3293882  -0.1976329   0.3093467), wk =   0.0025510
        k(  190) = (   0.5599600   0.0329388   0.3093467), wk =   0.0025510
        k(  191) = (  -0.6917152   0.4940823  -0.1933417), wk =   0.0025510
        k(  192) = (  -0.4611435   0.7246541  -0.1933417), wk =   0.0025510
        k(  193) = (  -0.2305717   0.9552258  -0.1933417), wk =   0.0025510
        k(  194) = (  -1.8445740  -0.6587764  -0.1933417), wk =   0.0025510
        k(  195) = (  -1.6140022  -0.4282047  -0.1933417), wk =   0.0025510
        k(  196) = (  -1.3834305  -0.1976329  -0.1933417), wk =   0.0025510
        k(  197) = (  -1.1528587   0.0329388  -0.1933417), wk =   0.0025510
        k(  198) = (  -0.7905317   0.2635106  -0.1546733), wk =   0.0025510
        k(  199) = (  -0.5599600   0.4940823  -0.1546733), wk =   0.0025510
        k(  200) = (  -0.3293882   0.7246541  -0.1546733), wk =   0.0025510
        k(  201) = (  -0.0988165   0.9552258  -0.1546733), wk =   0.0025510
        k(  202) = (  -1.7128187  -0.6587764  -0.1546733), wk =   0.0025510
        k(  203) = (  -1.4822469  -0.4282047  -0.1546733), wk =   0.0025510
        k(  204) = (  -1.2516752  -0.1976329  -0.1546733), wk =   0.0025510
        k(  205) = (  -1.0211035   0.0329388  -0.1546733), wk =   0.0025510
        k(  206) = (  -0.6587764   0.2635106  -0.1160050), wk =   0.0025510
        k(  207) = (  -0.4282047   0.4940823  -0.1160050), wk =   0.0025510
        k(  208) = (  -0.1976329   0.7246541  -0.1160050), wk =   0.0025510
        k(  209) = (   0.0329388   0.9552258  -0.1160050), wk =   0.0025510
        k(  210) = (  -1.5810634  -0.6587764  -0.1160050), wk =   0.0025510
        k(  211) = (  -1.3504917  -0.4282047  -0.1160050), wk =   0.0025510
        k(  212) = (  -1.1199199  -0.1976329  -0.1160050), wk =   0.0025510
        k(  213) = (  -0.8893482   0.0329388  -0.1160050), wk =   0.0025510
        k(  214) = (  -0.5270211   0.2635106  -0.0773367), wk =   0.0025510
        k(  215) = (  -0.2964494   0.4940823  -0.0773367), wk =   0.0025510
        k(  216) = (  -0.0658776   0.7246541  -0.0773367), wk =   0.0025510
        k(  217) = (   0.1646941   0.9552258  -0.0773367), wk =   0.0025510
        k(  218) = (  -1.4493081  -0.6587764  -0.0773367), wk =   0.0025510
        k(  219) = (  -1.2187364  -0.4282047  -0.0773367), wk =   0.0025510
        k(  220) = (  -0.9881646  -0.1976329  -0.0773367), wk =   0.0025510
        k(  221) = (  -0.7575929   0.0329388  -0.0773367), wk =   0.0025510
        k(  222) = (  -0.3952659   0.2635106  -0.0386683), wk =   0.0025510
        k(  223) = (  -0.1646941   0.4940823  -0.0386683), wk =   0.0025510
        k(  224) = (   0.0658776   0.7246541  -0.0386683), wk =   0.0025510
        k(  225) = (   0.2964494   0.9552258  -0.0386683), wk =   0.0025510
        k(  226) = (  -1.3175528  -0.6587764  -0.0386683), wk =   0.0025510
        k(  227) = (  -1.0869811  -0.4282047  -0.0386683), wk =   0.0025510
        k(  228) = (  -0.8564093  -0.1976329  -0.0386683), wk =   0.0025510
        k(  229) = (  -0.6258376   0.0329388  -0.0386683), wk =   0.0025510
        k(  230) = (  -0.2635106   0.2635106  -0.0000000), wk =   0.0012755
        k(  231) = (  -0.0329388   0.4940823  -0.0000000), wk =   0.0025510
        k(  232) = (   0.1976329   0.7246541  -0.0000000), wk =   0.0025510
        k(  233) = (   0.4282047   0.9552258  -0.0000000), wk =   0.0025510
        k(  234) = (  -1.1857976  -0.6587764  -0.0000000), wk =   0.0012755
        k(  235) = (   0.3952659   0.3952659   0.2320100), wk =   0.0012755
        k(  236) = (   0.6258376   0.6258376   0.2320100), wk =   0.0012755
        k(  237) = (   0.8564093   0.8564093   0.2320100), wk =   0.0012755
        k(  238) = (   1.0869811   1.0869811   0.2320100), wk =   0.0012755
        k(  239) = (  -0.5270211  -0.5270211   0.2320100), wk =   0.0012755
        k(  240) = (  -0.2964494  -0.2964494   0.2320100), wk =   0.0012755
        k(  241) = (  -0.0658776  -0.0658776   0.2320100), wk =   0.0012755
        k(  242) = (   0.1646941   0.1646941   0.2320100), wk =   0.0012755
        k(  243) = (   0.5270211   0.3952659   0.2706783), wk =   0.0051020
        k(  244) = (   0.7575929   0.6258376   0.2706783), wk =   0.0051020
        k(  245) = (   0.9881646   0.8564093   0.2706783), wk =   0.0025510
        k(  246) = (  -0.1646941  -0.2964494   0.2706783), wk =   0.0051020
        k(  247) = (   0.0658776  -0.0658776   0.2706783), wk =   0.0025510
        k(  248) = (   0.6587764   0.3952659   0.3093467), wk =   0.0025510
        k(  249) = (   0.8893482   0.6258376   0.3093467), wk =   0.0025510
        k(  250) = (   1.1199199   0.8564093   0.3093467), wk =   0.0025510
        k(  251) = (   1.3504917   1.0869811   0.3093467), wk =   0.0025510
        k(  252) = (  -0.2635106  -0.5270211   0.3093467), wk =   0.0025510
        k(  253) = (  -0.0329388  -0.2964494   0.3093467), wk =   0.0025510
        k(  254) = (   0.1976329  -0.0658776   0.3093467), wk =   0.0025510
        k(  255) = (   0.4282047   0.1646941   0.3093467), wk =   0.0025510
        k(  256) = (   0.7905317   0.3952659   0.3480150), wk =   0.0025510
        k(  257) = (   1.0211035   0.6258376   0.3480150), wk =   0.0025510
        k(  258) = (   1.2516752   0.8564093   0.3480150), wk =   0.0025510
        k(  259) = (   1.4822469   1.0869811   0.3480150), wk =   0.0025510
        k(  260) = (  -0.1317553  -0.5270211   0.3480150), wk =   0.0025510
        k(  261) = (   0.0988165  -0.2964494   0.3480150), wk =   0.0025510
        k(  262) = (   0.3293882  -0.0658776   0.3480150), wk =   0.0025510
        k(  263) = (   0.5599600   0.1646941   0.3480150), wk =   0.0025510
        k(  264) = (  -0.6917152   0.6258376  -0.1546733), wk =   0.0025510
        k(  265) = (  -0.4611435   0.8564093  -0.1546733), wk =   0.0025510
        k(  266) = (  -0.2305717   1.0869811  -0.1546733), wk =   0.0025510
        k(  267) = (  -1.8445740  -0.5270211  -0.1546733), wk =   0.0025510
        k(  268) = (  -1.6140022  -0.2964494  -0.1546733), wk =   0.0025510
        k(  269) = (  -1.3834305  -0.0658776  -0.1546733), wk =   0.0025510
        k(  270) = (  -1.1528587   0.1646941  -0.1546733), wk =   0.0025510
        k(  271) = (  -0.7905317   0.3952659  -0.1160050), wk =   0.0025510
        k(  272) = (  -0.5599600   0.6258376  -0.1160050), wk =   0.0025510
        k(  273) = (  -0.3293882   0.8564093  -0.1160050), wk =   0.0025510
        k(  274) = (  -0.0988165   1.0869811  -0.1160050), wk =   0.0025510
        k(  275) = (  -1.7128187  -0.5270211  -0.1160050), wk =   0.0025510
        k(  276) = (  -1.4822469  -0.2964494  -0.1160050), wk =   0.0025510
        k(  277) = (  -1.2516752  -0.0658776  -0.1160050), wk =   0.0025510
        k(  278) = (  -1.0211035   0.1646941  -0.1160050), wk =   0.0025510
        k(  279) = (  -0.6587764   0.3952659  -0.0773367), wk =   0.0025510
        k(  280) = (  -0.4282047   0.6258376  -0.0773367), wk =   0.0025510
        k(  281) = (  -0.1976329   0.8564093  -0.0773367), wk =   0.0025510
        k(  282) = (   0.0329388   1.0869811  -0.0773367), wk =   0.0025510
        k(  283) = (  -1.5810634  -0.5270211  -0.0773367), wk =   0.0025510
        k(  284) = (  -1.3504917  -0.2964494  -0.0773367), wk =   0.0025510
        k(  285) = (  -1.1199199  -0.0658776  -0.0773367), wk =   0.0025510
        k(  286) = (  -0.8893482   0.1646941  -0.0773367), wk =   0.0025510
        k(  287) = (  -0.5270211   0.3952659  -0.0386683), wk =   0.0025510
        k(  288) = (  -0.2964494   0.6258376  -0.0386683), wk =   0.0025510
        k(  289) = (  -0.0658776   0.8564093  -0.0386683), wk =   0.0025510
        k(  290) = (   0.1646941   1.0869811  -0.0386683), wk =   0.0025510
        k(  291) = (  -1.4493081  -0.5270211  -0.0386683), wk =   0.0025510
        k(  292) = (  -1.2187364  -0.2964494  -0.0386683), wk =   0.0025510
        k(  293) = (  -0.9881646  -0.0658776  -0.0386683), wk =   0.0025510
        k(  294) = (  -0.7575929   0.1646941  -0.0386683), wk =   0.0025510
        k(  295) = (  -0.3952659   0.3952659  -0.0000000), wk =   0.0012755
        k(  296) = (  -0.1646941   0.6258376  -0.0000000), wk =   0.0025510
        k(  297) = (   0.0658776   0.8564093  -0.0000000), wk =   0.0025510
        k(  298) = (   0.2964494   1.0869811  -0.0000000), wk =   0.0025510
        k(  299) = (  -1.3175528  -0.5270211  -0.0000000), wk =   0.0012755
        k(  300) = (   0.5270211   0.5270211   0.3093467), wk =   0.0012755
        k(  301) = (   0.7575929   0.7575929   0.3093467), wk =   0.0012755
        k(  302) = (   0.9881646   0.9881646   0.3093467), wk =   0.0012755
        k(  303) = (   1.2187364   1.2187364   0.3093467), wk =   0.0012755
        k(  304) = (  -0.3952659  -0.3952659   0.3093467), wk =   0.0012755
        k(  305) = (  -0.1646941  -0.1646941   0.3093467), wk =   0.0012755
        k(  306) = (   0.0658776   0.0658776   0.3093467), wk =   0.0012755
        k(  307) = (   0.2964494   0.2964494   0.3093467), wk =   0.0012755
        k(  308) = (   0.6587764   0.5270211   0.3480150), wk =   0.0025510
        k(  309) = (   0.8893482   0.7575929   0.3480150), wk =   0.0025510
        k(  310) = (   1.1199199   0.9881646   0.3480150), wk =   0.0025510
        k(  311) = (   1.3504917   1.2187364   0.3480150), wk =   0.0025510
        k(  312) = (  -0.2635106  -0.3952659   0.3480150), wk =   0.0025510
        k(  313) = (  -0.0329388  -0.1646941   0.3480150), wk =   0.0025510
        k(  314) = (   0.1976329   0.0658776   0.3480150), wk =   0.0025510
        k(  315) = (   0.4282047   0.2964494   0.3480150), wk =   0.0025510
        k(  316) = (   0.7905317   0.5270211   0.3866833), wk =   0.0025510
        k(  317) = (   1.0211035   0.7575929   0.3866833), wk =   0.0025510
        k(  318) = (   1.2516752   0.9881646   0.3866833), wk =   0.0025510
        k(  319) = (   1.4822469   1.2187364   0.3866833), wk =   0.0025510
        k(  320) = (  -0.1317553  -0.3952659   0.3866833), wk =   0.0025510
        k(  321) = (   0.0988165  -0.1646941   0.3866833), wk =   0.0025510
        k(  322) = (   0.3293882   0.0658776   0.3866833), wk =   0.0025510
        k(  323) = (   0.5599600   0.2964494   0.3866833), wk =   0.0025510
        k(  324) = (  -0.6917152   0.7575929  -0.1160050), wk =   0.0025510
        k(  325) = (  -0.4611435   0.9881646  -0.1160050), wk =   0.0025510
        k(  326) = (  -0.2305717   1.2187364  -0.1160050), wk =   0.0025510
        k(  327) = (  -1.8445740  -0.3952659  -0.1160050), wk =   0.0025510
        k(  328) = (  -1.6140022  -0.1646941  -0.1160050), wk =   0.0025510
        k(  329) = (  -1.3834305   0.0658776  -0.1160050), wk =   0.0025510
        k(  330) = (  -1.1528587   0.2964494  -0.1160050), wk =   0.0025510
        k(  331) = (  -0.7905317   0.5270211  -0.0773367), wk =   0.0025510
        k(  332) = (  -0.5599600   0.7575929  -0.0773367), wk =   0.0025510
        k(  333) = (  -0.3293882   0.9881646  -0.0773367), wk =   0.0025510
        k(  334) = (  -0.0988165   1.2187364  -0.0773367), wk =   0.0025510
        k(  335) = (  -1.7128187  -0.3952659  -0.0773367), wk =   0.0025510
        k(  336) = (  -1.4822469  -0.1646941  -0.0773367), wk =   0.0025510
        k(  337) = (  -1.2516752   0.0658776  -0.0773367), wk =   0.0025510
        k(  338) = (  -1.0211035   0.2964494  -0.0773367), wk =   0.0025510
        k(  339) = (  -0.6587764   0.5270211  -0.0386683), wk =   0.0025510
        k(  340) = (  -0.4282047   0.7575929  -0.0386683), wk =   0.0025510
        k(  341) = (  -0.1976329   0.9881646  -0.0386683), wk =   0.0025510
        k(  342) = (   0.0329388   1.2187364  -0.0386683), wk =   0.0025510
        k(  343) = (  -1.5810634  -0.3952659  -0.0386683), wk =   0.0025510
        k(  344) = (  -1.3504917  -0.1646941  -0.0386683), wk =   0.0025510
        k(  345) = (  -1.1199199   0.0658776  -0.0386683), wk =   0.0025510
        k(  346) = (  -0.8893482   0.2964494  -0.0386683), wk =   0.0025510
        k(  347) = (  -0.5270211   0.5270211   0.0000000), wk =   0.0012755
        k(  348) = (  -0.2964494   0.7575929   0.0000000), wk =   0.0025510
        k(  349) = (  -0.0658776   0.9881646   0.0000000), wk =   0.0025510
        k(  350) = (   0.1646941   1.2187364   0.0000000), wk =   0.0025510
        k(  351) = (  -1.4493081  -0.3952659   0.0000000), wk =   0.0012755
        k(  352) = (   0.6587764   0.6587764   0.3866833), wk =   0.0012755
        k(  353) = (   0.8893482   0.8893482   0.3866833), wk =   0.0012755
        k(  354) = (   1.1199199   1.1199199   0.3866833), wk =   0.0012755
        k(  355) = (   1.3504917   1.3504917   0.3866833), wk =   0.0012755
        k(  356) = (  -0.2635106  -0.2635106   0.3866833), wk =   0.0012755
        k(  357) = (  -0.0329388  -0.0329388   0.3866833), wk =   0.0012755
        k(  358) = (   0.1976329   0.1976329   0.3866833), wk =   0.0012755
        k(  359) = (   0.4282047   0.4282047   0.3866833), wk =   0.0012755
        k(  360) = (   0.7905317   0.6587764   0.4253516), wk =   0.0025510
        k(  361) = (   1.0211035   0.8893482   0.4253516), wk =   0.0025510
        k(  362) = (   1.2516752   1.1199199   0.4253516), wk =   0.0025510
        k(  363) = (   1.4822469   1.3504917   0.4253516), wk =   0.0025510
        k(  364) = (  -0.1317553  -0.2635106   0.4253516), wk =   0.0025510
        k(  365) = (   0.0988165  -0.0329388   0.4253516), wk =   0.0025510
        k(  366) = (   0.3293882   0.1976329   0.4253516), wk =   0.0025510
        k(  367) = (   0.5599600   0.4282047   0.4253516), wk =   0.0025510
        k(  368) = (  -0.6917152   0.8893482  -0.0773367), wk =   0.0025510
        k(  369) = (  -0.4611435   1.1199199  -0.0773367), wk =   0.0025510
        k(  370) = (  -0.2305717   1.3504917  -0.0773367), wk =   0.0025510
        k(  371) = (  -1.8445740  -0.2635106  -0.0773367), wk =   0.0025510
        k(  372) = (  -1.6140022  -0.0329388  -0.0773367), wk =   0.0025510
        k(  373) = (  -1.3834305   0.1976329  -0.0773367), wk =   0.0025510
        k(  374) = (  -1.1528587   0.4282047  -0.0773367), wk =   0.0025510
        k(  375) = (  -0.7905317   0.6587764  -0.0386683), wk =   0.0025510
        k(  376) = (  -0.5599600   0.8893482  -0.0386683), wk =   0.0025510
        k(  377) = (  -0.3293882   1.1199199  -0.0386683), wk =   0.0025510
        k(  378) = (  -0.0988165   1.3504917  -0.0386683), wk =   0.0025510
        k(  379) = (  -1.7128187  -0.2635106  -0.0386683), wk =   0.0025510
        k(  380) = (  -1.4822469  -0.0329388  -0.0386683), wk =   0.0025510
        k(  381) = (  -1.2516752   0.1976329  -0.0386683), wk =   0.0025510
        k(  382) = (  -1.0211035   0.4282047  -0.0386683), wk =   0.0025510
        k(  383) = (  -0.6587764   0.6587764   0.0000000), wk =   0.0012755
        k(  384) = (  -0.4282047   0.8893482   0.0000000), wk =   0.0025510
        k(  385) = (  -0.1976329   1.1199199   0.0000000), wk =   0.0025510
        k(  386) = (   0.0329388   1.3504917   0.0000000), wk =   0.0025510
        k(  387) = (  -1.5810634  -0.2635106   0.0000000), wk =   0.0012755
        k(  388) = (   0.7905317   0.7905317   0.4640200), wk =   0.0012755
        k(  389) = (   1.0211035   1.0211035   0.4640200), wk =   0.0012755
        k(  390) = (   1.2516752   1.2516752   0.4640200), wk =   0.0012755
        k(  391) = (   1.4822469   1.4822469   0.4640200), wk =   0.0012755
        k(  392) = (  -0.1317553  -0.1317553   0.4640200), wk =   0.0012755
        k(  393) = (   0.0988165   0.0988165   0.4640200), wk =   0.0012755
        k(  394) = (   0.3293882   0.3293882   0.4640200), wk =   0.0012755
        k(  395) = (   0.5599600   0.5599600   0.4640200), wk =   0.0012755
        k(  396) = (  -0.6917152   1.0211035  -0.0386683), wk =   0.0025510
        k(  397) = (  -0.4611435   1.2516752  -0.0386683), wk =   0.0025510
        k(  398) = (  -0.2305717   1.4822469  -0.0386683), wk =   0.0025510
        k(  399) = (  -1.8445740  -0.1317553  -0.0386683), wk =   0.0025510
        k(  400) = (  -1.6140022   0.0988165  -0.0386683), wk =   0.0025510
        k(  401) = (  -1.3834305   0.3293882  -0.0386683), wk =   0.0025510
        k(  402) = (  -1.1528587   0.5599600  -0.0386683), wk =   0.0025510
        k(  403) = (  -0.7905317   0.7905317  -0.0000000), wk =   0.0012755
        k(  404) = (  -0.5599600   1.0211035  -0.0000000), wk =   0.0025510
        k(  405) = (  -0.3293882   1.2516752  -0.0000000), wk =   0.0025510
        k(  406) = (  -0.0988165   1.4822469  -0.0000000), wk =   0.0025510
        k(  407) = (  -1.7128187  -0.1317553  -0.0000000), wk =   0.0012755
        k(  408) = (  -0.6917152  -0.6917152  -0.5413566), wk =   0.0012755
        k(  409) = (  -0.4611435  -0.4611435  -0.5413566), wk =   0.0012755
        k(  410) = (  -0.2305717  -0.2305717  -0.5413566), wk =   0.0012755
        k(  411) = (  -1.8445740  -1.8445740  -0.5413566), wk =   0.0006378

                       cryst. coord.
        k(    1) = (   0.0000000   0.0000000   0.0000000), wk =   0.0006378
        k(    2) = (   0.0000000   0.0000000   0.1250000), wk =   0.0012755
        k(    3) = (   0.0000000   0.0000000   0.2500000), wk =   0.0012755
        k(    4) = (   0.0000000   0.0000000   0.3750000), wk =   0.0012755
        k(    5) = (   0.0000000   0.0000000  -0.5000000), wk =   0.0012755
        k(    6) = (   0.0000000   0.0714286   0.0000000), wk =   0.0025510
        k(    7) = (   0.0000000   0.0714286   0.1250000), wk =   0.0025510
        k(    8) = (  -0.0000000   0.0714286   0.2500000), wk =   0.0025510
        k(    9) = (  -0.0000000   0.0714286   0.3750000), wk =   0.0025510
        k(   10) = (   0.0000000   0.0714286  -0.5000000), wk =   0.0051020
        k(   11) = (  -0.0000000   0.0714286  -0.3750000), wk =   0.0025510
        k(   12) = (   0.0000000   0.0714286  -0.2500000), wk =   0.0025510
        k(   13) = (   0.0000000   0.0714286  -0.1250000), wk =   0.0025510
        k(   14) = (   0.0000000   0.1428571   0.0000000), wk =   0.0025510
        k(   15) = (   0.0000000   0.1428571   0.1250000), wk =   0.0025510
        k(   16) = (   0.0000000   0.1428571   0.2500000), wk =   0.0025510
        k(   17) = (  -0.0000000   0.1428571   0.3750000), wk =   0.0025510
        k(   18) = (   0.0000000   0.1428571  -0.5000000), wk =   0.0051020
        k(   19) = (   0.0000000   0.1428571  -0.3750000), wk =   0.0025510
        k(   20) = (   0.0000000   0.1428571  -0.2500000), wk =   0.0025510
        k(   21) = (   0.0000000   0.1428571  -0.1250000), wk =   0.0025510
        k(   22) = (  -0.0000000   0.2142857   0.0000000), wk =   0.0025510
        k(   23) = (  -0.0000000   0.2142857   0.1250000), wk =   0.0025510
        k(   24) = (  -0.0000000   0.2142857   0.2500000), wk =   0.0025510
        k(   25) = (  -0.0000000   0.2142857   0.3750000), wk =   0.0025510
        k(   26) = (   0.0000000   0.2142857  -0.5000000), wk =   0.0051020
        k(   27) = (  -0.0000000   0.2142857  -0.3750000), wk =   0.0025510
        k(   28) = (   0.0000000   0.2142857  -0.2500000), wk =   0.0025510
        k(   29) = (  -0.0000000   0.2142857  -0.1250000), wk =   0.0025510
        k(   30) = (   0.0000000   0.2857143   0.0000000), wk =   0.0025510
        k(   31) = (   0.0000000   0.2857143   0.1250000), wk =   0.0025510
        k(   32) = (   0.0000000   0.2857143   0.2500000), wk =   0.0025510
        k(   33) = (  -0.0000000   0.2857143   0.3750000), wk =   0.0025510
        k(   34) = (   0.0000000   0.2857143  -0.5000000), wk =   0.0051020
        k(   35) = (   0.0000000   0.2857143  -0.3750000), wk =   0.0025510
        k(   36) = (   0.0000000   0.2857143  -0.2500000), wk =   0.0025510
        k(   37) = (   0.0000000   0.2857143  -0.1250000), wk =   0.0025510
        k(   38) = (  -0.0000000   0.3571429   0.0000000), wk =   0.0025510
        k(   39) = (  -0.0000000   0.3571429   0.1250000), wk =   0.0025510
        k(   40) = (  -0.0000000   0.3571429   0.2500000), wk =   0.0025510
        k(   41) = (   0.0000000   0.3571429   0.3750000), wk =   0.0025510
        k(   42) = (   0.0000000   0.3571429  -0.5000000), wk =   0.0051020
        k(   43) = (  -0.0000000   0.3571429  -0.3750000), wk =   0.0025510
        k(   44) = (  -0.0000000   0.3571429  -0.2500000), wk =   0.0025510
        k(   45) = (  -0.0000000   0.3571429  -0.1250000), wk =   0.0025510
        k(   46) = (  -0.0000000   0.4285714   0.0000000), wk =   0.0025510
        k(   47) = (  -0.0000000   0.4285714   0.1250000), wk =   0.0025510
        k(   48) = (  -0.0000000   0.4285714   0.2500000), wk =   0.0025510
        k(   49) = (   0.0000000   0.4285714   0.3750000), wk =   0.0025510
        k(   50) = (   0.0000000   0.4285714  -0.5000000), wk =   0.0051020
        k(   51) = (  -0.0000000   0.4285714  -0.3750000), wk =   0.0025510
        k(   52) = (  -0.0000000   0.4285714  -0.2500000), wk =   0.0025510
        k(   53) = (  -0.0000000   0.4285714  -0.1250000), wk =   0.0025510
        k(   54) = (   0.0000000  -0.5000000   0.0000000), wk =   0.0025510
        k(   55) = (   0.0000000  -0.5000000   0.1250000), wk =   0.0051020
        k(   56) = (   0.0000000  -0.5000000   0.2500000), wk =   0.0025510
        k(   57) = (   0.0714286   0.0714286   0.0000000), wk =   0.0012755
        k(   58) = (   0.0714286   0.0714286   0.1250000), wk =   0.0012755
        k(   59) = (   0.0714286   0.0714286   0.2500000), wk =   0.0012755
        k(   60) = (   0.0714286   0.0714286   0.3750000), wk =   0.0012755
        k(   61) = (   0.0714286   0.0714286  -0.5000000), wk =   0.0012755
        k(   62) = (   0.0714286   0.0714286  -0.3750000), wk =   0.0012755
        k(   63) = (   0.0714286   0.0714286  -0.2500000), wk =   0.0012755
        k(   64) = (   0.0714286   0.0714286  -0.1250000), wk =   0.0012755
        k(   65) = (   0.0714286   0.1428571   0.0000000), wk =   0.0025510
        k(   66) = (   0.0714286   0.1428571   0.1250000), wk =   0.0025510
        k(   67) = (   0.0714286   0.1428571   0.2500000), wk =   0.0025510
        k(   68) = (   0.0714286   0.1428571   0.3750000), wk =   0.0025510
        k(   69) = (   0.0714286   0.1428571  -0.5000000), wk =   0.0025510
        k(   70) = (   0.0714286   0.1428571  -0.3750000), wk =   0.0025510
        k(   71) = (   0.0714286   0.1428571  -0.2500000), wk =   0.0025510
        k(   72) = (   0.0714286   0.1428571  -0.1250000), wk =   0.0025510
        k(   73) = (   0.0714286   0.2142857   0.0000000), wk =   0.0025510
        k(   74) = (   0.0714286   0.2142857   0.1250000), wk =   0.0025510
        k(   75) = (   0.0714286   0.2142857   0.2500000), wk =   0.0025510
        k(   76) = (   0.0714286   0.2142857   0.3750000), wk =   0.0025510
        k(   77) = (   0.0714286   0.2142857  -0.5000000), wk =   0.0025510
        k(   78) = (   0.0714286   0.2142857  -0.3750000), wk =   0.0025510
        k(   79) = (   0.0714286   0.2142857  -0.2500000), wk =   0.0025510
        k(   80) = (   0.0714286   0.2142857  -0.1250000), wk =   0.0025510
        k(   81) = (   0.0714286   0.2857143   0.0000000), wk =   0.0025510
        k(   82) = (   0.0714286   0.2857143   0.1250000), wk =   0.0025510
        k(   83) = (   0.0714286   0.2857143   0.2500000), wk =   0.0025510
        k(   84) = (   0.0714286   0.2857143   0.3750000), wk =   0.0025510
        k(   85) = (   0.0714286   0.2857143  -0.5000000), wk =   0.0025510
        k(   86) = (   0.0714286   0.2857143  -0.3750000), wk =   0.0025510
        k(   87) = (   0.0714286   0.2857143  -0.2500000), wk =   0.0025510
        k(   88) = (   0.0714286   0.2857143  -0.1250000), wk =   0.0025510
        k(   89) = (   0.0714286   0.3571429   0.0000000), wk =   0.0025510
        k(   90) = (   0.0714286   0.3571429   0.1250000), wk =   0.0025510
        k(   91) = (   0.0714286   0.3571429   0.2500000), wk =   0.0025510
        k(   92) = (   0.0714286   0.3571429   0.3750000), wk =   0.0025510
        k(   93) = (   0.0714286   0.3571429  -0.5000000), wk =   0.0025510
        k(   94) = (   0.0714286   0.3571429  -0.3750000), wk =   0.0025510
        k(   95) = (   0.0714286   0.3571429  -0.2500000), wk =   0.0025510
        k(   96) = (   0.0714286   0.3571429  -0.1250000), wk =   0.0025510
        k(   97) = (   0.0714286   0.4285714   0.0000000), wk =   0.0051020
        k(   98) = (   0.0714286   0.4285714   0.1250000), wk =   0.0051020
        k(   99) = (   0.0714286   0.4285714   0.2500000), wk =   0.0025510
        k(  100) = (   0.0714286   0.4285714  -0.3750000), wk =   0.0051020
        k(  101) = (   0.0714286   0.4285714  -0.2500000), wk =   0.0025510
        k(  102) = (   0.0714286  -0.5000000   0.1250000), wk =   0.0025510
        k(  103) = (   0.0714286  -0.5000000   0.2500000), wk =   0.0025510
        k(  104) = (   0.0714286  -0.5000000   0.3750000), wk =   0.0025510
        k(  105) = (   0.0714286  -0.5000000  -0.5000000), wk =   0.0025510
        k(  106) = (   0.0714286  -0.5000000  -0.3750000), wk =   0.0025510
        k(  107) = (   0.0714286  -0.5000000  -0.2500000), wk =   0.0025510
        k(  108) = (   0.0714286  -0.5000000  -0.1250000), wk =   0.0025510
        k(  109) = (   0.0714286  -0.4285714  -0.0000000), wk =   0.0025510
        k(  110) = (   0.0714286  -0.4285714   0.1250000), wk =   0.0025510
        k(  111) = (   0.0714286  -0.4285714   0.2500000), wk =   0.0025510
        k(  112) = (   0.0714286  -0.4285714   0.3750000), wk =   0.0025510
        k(  113) = (   0.0714286  -0.4285714  -0.5000000), wk =   0.0025510
        k(  114) = (   0.0714286  -0.4285714  -0.3750000), wk =   0.0025510
        k(  115) = (   0.0714286  -0.4285714  -0.2500000), wk =   0.0025510
        k(  116) = (   0.0714286  -0.4285714  -0.1250000), wk =   0.0025510
        k(  117) = (   0.0714286  -0.3571429  -0.0000000), wk =   0.0025510
        k(  118) = (   0.0714286  -0.3571429   0.1250000), wk =   0.0025510
        k(  119) = (   0.0714286  -0.3571429   0.2500000), wk =   0.0025510
        k(  120) = (   0.0714286  -0.3571429   0.3750000), wk =   0.0025510
        k(  121) = (   0.0714286  -0.3571429  -0.5000000), wk =   0.0025510
        k(  122) = (   0.0714286  -0.3571429  -0.3750000), wk =   0.0025510
        k(  123) = (   0.0714286  -0.3571429  -0.2500000), wk =   0.0025510
        k(  124) = (   0.0714286  -0.3571429  -0.1250000), wk =   0.0025510
        k(  125) = (   0.0714286  -0.2857143  -0.0000000), wk =   0.0025510
        k(  126) = (   0.0714286  -0.2857143   0.1250000), wk =   0.0025510
        k(  127) = (   0.0714286  -0.2857143   0.2500000), wk =   0.0025510
        k(  128) = (   0.0714286  -0.2857143   0.3750000), wk =   0.0025510
        k(  129) = (   0.0714286  -0.2857143  -0.5000000), wk =   0.0025510
        k(  130) = (   0.0714286  -0.2857143  -0.3750000), wk =   0.0025510
        k(  131) = (   0.0714286  -0.2857143  -0.2500000), wk =   0.0025510
        k(  132) = (   0.0714286  -0.2857143  -0.1250000), wk =   0.0025510
        k(  133) = (   0.0714286  -0.2142857  -0.0000000), wk =   0.0025510
        k(  134) = (   0.0714286  -0.2142857   0.1250000), wk =   0.0025510
        k(  135) = (   0.0714286  -0.2142857   0.2500000), wk =   0.0025510
        k(  136) = (   0.0714286  -0.2142857   0.3750000), wk =   0.0025510
        k(  137) = (   0.0714286  -0.2142857  -0.5000000), wk =   0.0025510
        k(  138) = (   0.0714286  -0.2142857  -0.3750000), wk =   0.0025510
        k(  139) = (   0.0714286  -0.2142857  -0.2500000), wk =   0.0025510
        k(  140) = (   0.0714286  -0.2142857  -0.1250000), wk =   0.0025510
        k(  141) = (   0.0714286  -0.1428571  -0.0000000), wk =   0.0025510
        k(  142) = (   0.0714286  -0.1428571   0.1250000), wk =   0.0025510
        k(  143) = (   0.0714286  -0.1428571   0.2500000), wk =   0.0025510
        k(  144) = (   0.0714286  -0.1428571   0.3750000), wk =   0.0025510
        k(  145) = (   0.0714286  -0.1428571  -0.5000000), wk =   0.0025510
        k(  146) = (   0.0714286  -0.1428571  -0.3750000), wk =   0.0025510
        k(  147) = (   0.0714286  -0.1428571  -0.2500000), wk =   0.0025510
        k(  148) = (   0.0714286  -0.1428571  -0.1250000), wk =   0.0025510
        k(  149) = (   0.0714286  -0.0714286   0.0000000), wk =   0.0012755
        k(  150) = (   0.0714286  -0.0714286   0.1250000), wk =   0.0025510
        k(  151) = (   0.0714286  -0.0714286   0.2500000), wk =   0.0025510
        k(  152) = (   0.0714286  -0.0714286   0.3750000), wk =   0.0025510
        k(  153) = (   0.0714286  -0.0714286  -0.5000000), wk =   0.0012755
        k(  154) = (   0.1428571   0.1428571   0.0000000), wk =   0.0012755
        k(  155) = (   0.1428571   0.1428571   0.1250000), wk =   0.0012755
        k(  156) = (   0.1428571   0.1428571   0.2500000), wk =   0.0012755
        k(  157) = (   0.1428571   0.1428571   0.3750000), wk =   0.0012755
        k(  158) = (   0.1428571   0.1428571  -0.5000000), wk =   0.0012755
        k(  159) = (   0.1428571   0.1428571  -0.3750000), wk =   0.0012755
        k(  160) = (   0.1428571   0.1428571  -0.2500000), wk =   0.0012755
        k(  161) = (   0.1428571   0.1428571  -0.1250000), wk =   0.0012755
        k(  162) = (   0.1428571   0.2142857   0.0000000), wk =   0.0025510
        k(  163) = (   0.1428571   0.2142857   0.1250000), wk =   0.0025510
        k(  164) = (   0.1428571   0.2142857   0.2500000), wk =   0.0025510
        k(  165) = (   0.1428571   0.2142857   0.3750000), wk =   0.0025510
        k(  166) = (   0.1428571   0.2142857  -0.5000000), wk =   0.0025510
        k(  167) = (   0.1428571   0.2142857  -0.3750000), wk =   0.0025510
        k(  168) = (   0.1428571   0.2142857  -0.2500000), wk =   0.0025510
        k(  169) = (   0.1428571   0.2142857  -0.1250000), wk =   0.0025510
        k(  170) = (   0.1428571   0.2857143   0.0000000), wk =   0.0025510
        k(  171) = (   0.1428571   0.2857143   0.1250000), wk =   0.0025510
        k(  172) = (   0.1428571   0.2857143   0.2500000), wk =   0.0025510
        k(  173) = (   0.1428571   0.2857143   0.3750000), wk =   0.0025510
        k(  174) = (   0.1428571   0.2857143  -0.5000000), wk =   0.0025510
        k(  175) = (   0.1428571   0.2857143  -0.3750000), wk =   0.0025510
        k(  176) = (   0.1428571   0.2857143  -0.2500000), wk =   0.0025510
        k(  177) = (   0.1428571   0.2857143  -0.1250000), wk =   0.0025510
        k(  178) = (   0.1428571   0.3571429   0.0000000), wk =   0.0051020
        k(  179) = (   0.1428571   0.3571429   0.1250000), wk =   0.0051020
        k(  180) = (   0.1428571   0.3571429   0.2500000), wk =   0.0025510
        k(  181) = (   0.1428571   0.3571429  -0.3750000), wk =   0.0051020
        k(  182) = (   0.1428571   0.3571429  -0.2500000), wk =   0.0025510
        k(  183) = (   0.1428571   0.4285714   0.0000000), wk =   0.0025510
        k(  184) = (   0.1428571   0.4285714   0.1250000), wk =   0.0025510
        k(  185) = (   0.1428571   0.4285714   0.2500000), wk =   0.0025510
        k(  186) = (   0.1428571   0.4285714   0.3750000), wk =   0.0025510
        k(  187) = (   0.1428571   0.4285714  -0.5000000), wk =   0.0025510
        k(  188) = (   0.1428571   0.4285714  -0.3750000), wk =   0.0025510
        k(  189) = (   0.1428571   0.4285714  -0.2500000), wk =   0.0025510
        k(  190) = (   0.1428571   0.4285714  -0.1250000), wk =   0.0025510
        k(  191) = (   0.1428571  -0.5000000   0.1250000), wk =   0.0025510
        k(  192) = (   0.1428571  -0.5000000   0.2500000), wk =   0.0025510
        k(  193) = (   0.1428571  -0.5000000   0.3750000), wk =   0.0025510
        k(  194) = (   0.1428571  -0.5000000  -0.5000000), wk =   0.0025510
        k(  195) = (   0.1428571  -0.5000000  -0.3750000), wk =   0.0025510
        k(  196) = (   0.1428571  -0.5000000  -0.2500000), wk =   0.0025510
        k(  197) = (   0.1428571  -0.5000000  -0.1250000), wk =   0.0025510
        k(  198) = (   0.1428571  -0.4285714  -0.0000000), wk =   0.0025510
        k(  199) = (   0.1428571  -0.4285714   0.1250000), wk =   0.0025510
        k(  200) = (   0.1428571  -0.4285714   0.2500000), wk =   0.0025510
        k(  201) = (   0.1428571  -0.4285714   0.3750000), wk =   0.0025510
        k(  202) = (   0.1428571  -0.4285714  -0.5000000), wk =   0.0025510
        k(  203) = (   0.1428571  -0.4285714  -0.3750000), wk =   0.0025510
        k(  204) = (   0.1428571  -0.4285714  -0.2500000), wk =   0.0025510
        k(  205) = (   0.1428571  -0.4285714  -0.1250000), wk =   0.0025510
        k(  206) = (   0.1428571  -0.3571429  -0.0000000), wk =   0.0025510
        k(  207) = (   0.1428571  -0.3571429   0.1250000), wk =   0.0025510
        k(  208) = (   0.1428571  -0.3571429   0.2500000), wk =   0.0025510
        k(  209) = (   0.1428571  -0.3571429   0.3750000), wk =   0.0025510
        k(  210) = (   0.1428571  -0.3571429  -0.5000000), wk =   0.0025510
        k(  211) = (   0.1428571  -0.3571429  -0.3750000), wk =   0.0025510
        k(  212) = (   0.1428571  -0.3571429  -0.2500000), wk =   0.0025510
        k(  213) = (   0.1428571  -0.3571429  -0.1250000), wk =   0.0025510
        k(  214) = (   0.1428571  -0.2857143   0.0000000), wk =   0.0025510
        k(  215) = (   0.1428571  -0.2857143   0.1250000), wk =   0.0025510
        k(  216) = (   0.1428571  -0.2857143   0.2500000), wk =   0.0025510
        k(  217) = (   0.1428571  -0.2857143   0.3750000), wk =   0.0025510
        k(  218) = (   0.1428571  -0.2857143  -0.5000000), wk =   0.0025510
        k(  219) = (   0.1428571  -0.2857143  -0.3750000), wk =   0.0025510
        k(  220) = (   0.1428571  -0.2857143  -0.2500000), wk =   0.0025510
        k(  221) = (   0.1428571  -0.2857143  -0.1250000), wk =   0.0025510
        k(  222) = (   0.1428571  -0.2142857  -0.0000000), wk =   0.0025510
        k(  223) = (   0.1428571  -0.2142857   0.1250000), wk =   0.0025510
        k(  224) = (   0.1428571  -0.2142857   0.2500000), wk =   0.0025510
        k(  225) = (   0.1428571  -0.2142857   0.3750000), wk =   0.0025510
        k(  226) = (   0.1428571  -0.2142857  -0.5000000), wk =   0.0025510
        k(  227) = (   0.1428571  -0.2142857  -0.3750000), wk =   0.0025510
        k(  228) = (   0.1428571  -0.2142857  -0.2500000), wk =   0.0025510
        k(  229) = (   0.1428571  -0.2142857  -0.1250000), wk =   0.0025510
        k(  230) = (   0.1428571  -0.1428571  -0.0000000), wk =   0.0012755
        k(  231) = (   0.1428571  -0.1428571   0.1250000), wk =   0.0025510
        k(  232) = (   0.1428571  -0.1428571   0.2500000), wk =   0.0025510
        k(  233) = (   0.1428571  -0.1428571   0.3750000), wk =   0.0025510
        k(  234) = (   0.1428571  -0.1428571  -0.5000000), wk =   0.0012755
        k(  235) = (   0.2142857   0.2142857   0.0000000), wk =   0.0012755
        k(  236) = (   0.2142857   0.2142857   0.1250000), wk =   0.0012755
        k(  237) = (   0.2142857   0.2142857   0.2500000), wk =   0.0012755
        k(  238) = (   0.2142857   0.2142857   0.3750000), wk =   0.0012755
        k(  239) = (   0.2142857   0.2142857  -0.5000000), wk =   0.0012755
        k(  240) = (   0.2142857   0.2142857  -0.3750000), wk =   0.0012755
        k(  241) = (   0.2142857   0.2142857  -0.2500000), wk =   0.0012755
        k(  242) = (   0.2142857   0.2142857  -0.1250000), wk =   0.0012755
        k(  243) = (   0.2142857   0.2857143   0.0000000), wk =   0.0051020
        k(  244) = (   0.2142857   0.2857143   0.1250000), wk =   0.0051020
        k(  245) = (   0.2142857   0.2857143   0.2500000), wk =   0.0025510
        k(  246) = (   0.2142857   0.2857143  -0.3750000), wk =   0.0051020
        k(  247) = (   0.2142857   0.2857143  -0.2500000), wk =   0.0025510
        k(  248) = (   0.2142857   0.3571429   0.0000000), wk =   0.0025510
        k(  249) = (   0.2142857   0.3571429   0.1250000), wk =   0.0025510
        k(  250) = (   0.2142857   0.3571429   0.2500000), wk =   0.0025510
        k(  251) = (   0.2142857   0.3571429   0.3750000), wk =   0.0025510
        k(  252) = (   0.2142857   0.3571429  -0.5000000), wk =   0.0025510
        k(  253) = (   0.2142857   0.3571429  -0.3750000), wk =   0.0025510
        k(  254) = (   0.2142857   0.3571429  -0.2500000), wk =   0.0025510
        k(  255) = (   0.2142857   0.3571429  -0.1250000), wk =   0.0025510
        k(  256) = (   0.2142857   0.4285714   0.0000000), wk =   0.0025510
        k(  257) = (   0.2142857   0.4285714   0.1250000), wk =   0.0025510
        k(  258) = (   0.2142857   0.4285714   0.2500000), wk =   0.0025510
        k(  259) = (   0.2142857   0.4285714   0.3750000), wk =   0.0025510
        k(  260) = (   0.2142857   0.4285714  -0.5000000), wk =   0.0025510
        k(  261) = (   0.2142857   0.4285714  -0.3750000), wk =   0.0025510
        k(  262) = (   0.2142857   0.4285714  -0.2500000), wk =   0.0025510
        k(  263) = (   0.2142857   0.4285714  -0.1250000), wk =   0.0025510
        k(  264) = (   0.2142857  -0.5000000   0.1250000), wk =   0.0025510
        k(  265) = (   0.2142857  -0.5000000   0.2500000), wk =   0.0025510
        k(  266) = (   0.2142857  -0.5000000   0.3750000), wk =   0.0025510
        k(  267) = (   0.2142857  -0.5000000  -0.5000000), wk =   0.0025510
        k(  268) = (   0.2142857  -0.5000000  -0.3750000), wk =   0.0025510
        k(  269) = (   0.2142857  -0.5000000  -0.2500000), wk =   0.0025510
        k(  270) = (   0.2142857  -0.5000000  -0.1250000), wk =   0.0025510
        k(  271) = (   0.2142857  -0.4285714  -0.0000000), wk =   0.0025510
        k(  272) = (   0.2142857  -0.4285714   0.1250000), wk =   0.0025510
        k(  273) = (   0.2142857  -0.4285714   0.2500000), wk =   0.0025510
        k(  274) = (   0.2142857  -0.4285714   0.3750000), wk =   0.0025510
        k(  275) = (   0.2142857  -0.4285714  -0.5000000), wk =   0.0025510
        k(  276) = (   0.2142857  -0.4285714  -0.3750000), wk =   0.0025510
        k(  277) = (   0.2142857  -0.4285714  -0.2500000), wk =   0.0025510
        k(  278) = (   0.2142857  -0.4285714  -0.1250000), wk =   0.0025510
        k(  279) = (   0.2142857  -0.3571429   0.0000000), wk =   0.0025510
        k(  280) = (   0.2142857  -0.3571429   0.1250000), wk =   0.0025510
        k(  281) = (   0.2142857  -0.3571429   0.2500000), wk =   0.0025510
        k(  282) = (   0.2142857  -0.3571429   0.3750000), wk =   0.0025510
        k(  283) = (   0.2142857  -0.3571429  -0.5000000), wk =   0.0025510
        k(  284) = (   0.2142857  -0.3571429  -0.3750000), wk =   0.0025510
        k(  285) = (   0.2142857  -0.3571429  -0.2500000), wk =   0.0025510
        k(  286) = (   0.2142857  -0.3571429  -0.1250000), wk =   0.0025510
        k(  287) = (   0.2142857  -0.2857143   0.0000000), wk =   0.0025510
        k(  288) = (   0.2142857  -0.2857143   0.1250000), wk =   0.0025510
        k(  289) = (   0.2142857  -0.2857143   0.2500000), wk =   0.0025510
        k(  290) = (   0.2142857  -0.2857143   0.3750000), wk =   0.0025510
        k(  291) = (   0.2142857  -0.2857143  -0.5000000), wk =   0.0025510
        k(  292) = (   0.2142857  -0.2857143  -0.3750000), wk =   0.0025510
        k(  293) = (   0.2142857  -0.2857143  -0.2500000), wk =   0.0025510
        k(  294) = (   0.2142857  -0.2857143  -0.1250000), wk =   0.0025510
        k(  295) = (   0.2142857  -0.2142857  -0.0000000), wk =   0.0012755
        k(  296) = (   0.2142857  -0.2142857   0.1250000), wk =   0.0025510
        k(  297) = (   0.2142857  -0.2142857   0.2500000), wk =   0.0025510
        k(  298) = (   0.2142857  -0.2142857   0.3750000), wk =   0.0025510
        k(  299) = (   0.2142857  -0.2142857  -0.5000000), wk =   0.0012755
        k(  300) = (   0.2857143   0.2857143   0.0000000), wk =   0.0012755
        k(  301) = (   0.2857143   0.2857143   0.1250000), wk =   0.0012755
        k(  302) = (   0.2857143   0.2857143   0.2500000), wk =   0.0012755
        k(  303) = (   0.2857143   0.2857143   0.3750000), wk =   0.0012755
        k(  304) = (   0.2857143   0.2857143  -0.5000000), wk =   0.0012755
        k(  305) = (   0.2857143   0.2857143  -0.3750000), wk =   0.0012755
        k(  306) = (   0.2857143   0.2857143  -0.2500000), wk =   0.0012755
        k(  307) = (   0.2857143   0.2857143  -0.1250000), wk =   0.0012755
        k(  308) = (   0.2857143   0.3571429   0.0000000), wk =   0.0025510
        k(  309) = (   0.2857143   0.3571429   0.1250000), wk =   0.0025510
        k(  310) = (   0.2857143   0.3571429   0.2500000), wk =   0.0025510
        k(  311) = (   0.2857143   0.3571429   0.3750000), wk =   0.0025510
        k(  312) = (   0.2857143   0.3571429  -0.5000000), wk =   0.0025510
        k(  313) = (   0.2857143   0.3571429  -0.3750000), wk =   0.0025510
        k(  314) = (   0.2857143   0.3571429  -0.2500000), wk =   0.0025510
        k(  315) = (   0.2857143   0.3571429  -0.1250000), wk =   0.0025510
        k(  316) = (   0.2857143   0.4285714   0.0000000), wk =   0.0025510
        k(  317) = (   0.2857143   0.4285714   0.1250000), wk =   0.0025510
        k(  318) = (   0.2857143   0.4285714   0.2500000), wk =   0.0025510
        k(  319) = (   0.2857143   0.4285714   0.3750000), wk =   0.0025510
        k(  320) = (   0.2857143   0.4285714  -0.5000000), wk =   0.0025510
        k(  321) = (   0.2857143   0.4285714  -0.3750000), wk =   0.0025510
        k(  322) = (   0.2857143   0.4285714  -0.2500000), wk =   0.0025510
        k(  323) = (   0.2857143   0.4285714  -0.1250000), wk =   0.0025510
        k(  324) = (   0.2857143  -0.5000000   0.1250000), wk =   0.0025510
        k(  325) = (   0.2857143  -0.5000000   0.2500000), wk =   0.0025510
        k(  326) = (   0.2857143  -0.5000000   0.3750000), wk =   0.0025510
        k(  327) = (   0.2857143  -0.5000000  -0.5000000), wk =   0.0025510
        k(  328) = (   0.2857143  -0.5000000  -0.3750000), wk =   0.0025510
        k(  329) = (   0.2857143  -0.5000000  -0.2500000), wk =   0.0025510
        k(  330) = (   0.2857143  -0.5000000  -0.1250000), wk =   0.0025510
        k(  331) = (   0.2857143  -0.4285714  -0.0000000), wk =   0.0025510
        k(  332) = (   0.2857143  -0.4285714   0.1250000), wk =   0.0025510
        k(  333) = (   0.2857143  -0.4285714   0.2500000), wk =   0.0025510
        k(  334) = (   0.2857143  -0.4285714   0.3750000), wk =   0.0025510
        k(  335) = (   0.2857143  -0.4285714  -0.5000000), wk =   0.0025510
        k(  336) = (   0.2857143  -0.4285714  -0.3750000), wk =   0.0025510
        k(  337) = (   0.2857143  -0.4285714  -0.2500000), wk =   0.0025510
        k(  338) = (   0.2857143  -0.4285714  -0.1250000), wk =   0.0025510
        k(  339) = (   0.2857143  -0.3571429  -0.0000000), wk =   0.0025510
        k(  340) = (   0.2857143  -0.3571429   0.1250000), wk =   0.0025510
        k(  341) = (   0.2857143  -0.3571429   0.2500000), wk =   0.0025510
        k(  342) = (   0.2857143  -0.3571429   0.3750000), wk =   0.0025510
        k(  343) = (   0.2857143  -0.3571429  -0.5000000), wk =   0.0025510
        k(  344) = (   0.2857143  -0.3571429  -0.3750000), wk =   0.0025510
        k(  345) = (   0.2857143  -0.3571429  -0.2500000), wk =   0.0025510
        k(  346) = (   0.2857143  -0.3571429  -0.1250000), wk =   0.0025510
        k(  347) = (   0.2857143  -0.2857143   0.0000000), wk =   0.0012755
        k(  348) = (   0.2857143  -0.2857143   0.1250000), wk =   0.0025510
        k(  349) = (   0.2857143  -0.2857143   0.2500000), wk =   0.0025510
        k(  350) = (   0.2857143  -0.2857143   0.3750000), wk =   0.0025510
        k(  351) = (   0.2857143  -0.2857143  -0.5000000), wk =   0.0012755
        k(  352) = (   0.3571429   0.3571429   0.0000000), wk =   0.0012755
        k(  353) = (   0.3571429   0.3571429   0.1250000), wk =   0.0012755
        k(  354) = (   0.3571429   0.3571429   0.2500000), wk =   0.0012755
        k(  355) = (   0.3571429   0.3571429   0.3750000), wk =   0.0012755
        k(  356) = (   0.3571429   0.3571429  -0.5000000), wk =   0.0012755
        k(  357) = (   0.3571429   0.3571429  -0.3750000), wk =   0.0012755
        k(  358) = (   0.3571429   0.3571429  -0.2500000), wk =   0.0012755
        k(  359) = (   0.3571429   0.3571429  -0.1250000), wk =   0.0012755
        k(  360) = (   0.3571429   0.4285714   0.0000000), wk =   0.0025510
        k(  361) = (   0.3571429   0.4285714   0.1250000), wk =   0.0025510
        k(  362) = (   0.3571429   0.4285714   0.2500000), wk =   0.0025510
        k(  363) = (   0.3571429   0.4285714   0.3750000), wk =   0.0025510
        k(  364) = (   0.3571429   0.4285714  -0.5000000), wk =   0.0025510
        k(  365) = (   0.3571429   0.4285714  -0.3750000), wk =   0.0025510
        k(  366) = (   0.3571429   0.4285714  -0.2500000), wk =   0.0025510
        k(  367) = (   0.3571429   0.4285714  -0.1250000), wk =   0.0025510
        k(  368) = (   0.3571429  -0.5000000   0.1250000), wk =   0.0025510
        k(  369) = (   0.3571429  -0.5000000   0.2500000), wk =   0.0025510
        k(  370) = (   0.3571429  -0.5000000   0.3750000), wk =   0.0025510
        k(  371) = (   0.3571429  -0.5000000  -0.5000000), wk =   0.0025510
        k(  372) = (   0.3571429  -0.5000000  -0.3750000), wk =   0.0025510
        k(  373) = (   0.3571429  -0.5000000  -0.2500000), wk =   0.0025510
        k(  374) = (   0.3571429  -0.5000000  -0.1250000), wk =   0.0025510
        k(  375) = (   0.3571429  -0.4285714  -0.0000000), wk =   0.0025510
        k(  376) = (   0.3571429  -0.4285714   0.1250000), wk =   0.0025510
        k(  377) = (   0.3571429  -0.4285714   0.2500000), wk =   0.0025510
        k(  378) = (   0.3571429  -0.4285714   0.3750000), wk =   0.0025510
        k(  379) = (   0.3571429  -0.4285714  -0.5000000), wk =   0.0025510
        k(  380) = (   0.3571429  -0.4285714  -0.3750000), wk =   0.0025510
        k(  381) = (   0.3571429  -0.4285714  -0.2500000), wk =   0.0025510
        k(  382) = (   0.3571429  -0.4285714  -0.1250000), wk =   0.0025510
        k(  383) = (   0.3571429  -0.3571429   0.0000000), wk =   0.0012755
        k(  384) = (   0.3571429  -0.3571429   0.1250000), wk =   0.0025510
        k(  385) = (   0.3571429  -0.3571429   0.2500000), wk =   0.0025510
        k(  386) = (   0.3571429  -0.3571429   0.3750000), wk =   0.0025510
        k(  387) = (   0.3571429  -0.3571429  -0.5000000), wk =   0.0012755
        k(  388) = (   0.4285714   0.4285714   0.0000000), wk =   0.0012755
        k(  389) = (   0.4285714   0.4285714   0.1250000), wk =   0.0012755
        k(  390) = (   0.4285714   0.4285714   0.2500000), wk =   0.0012755
        k(  391) = (   0.4285714   0.4285714   0.3750000), wk =   0.0012755
        k(  392) = (   0.4285714   0.4285714  -0.5000000), wk =   0.0012755
        k(  393) = (   0.4285714   0.4285714  -0.3750000), wk =   0.0012755
        k(  394) = (   0.4285714   0.4285714  -0.2500000), wk =   0.0012755
        k(  395) = (   0.4285714   0.4285714  -0.1250000), wk =   0.0012755
        k(  396) = (   0.4285714  -0.5000000   0.1250000), wk =   0.0025510
        k(  397) = (   0.4285714  -0.5000000   0.2500000), wk =   0.0025510
        k(  398) = (   0.4285714  -0.5000000   0.3750000), wk =   0.0025510
        k(  399) = (   0.4285714  -0.5000000  -0.5000000), wk =   0.0025510
        k(  400) = (   0.4285714  -0.5000000  -0.3750000), wk =   0.0025510
        k(  401) = (   0.4285714  -0.5000000  -0.2500000), wk =   0.0025510
        k(  402) = (   0.4285714  -0.5000000  -0.1250000), wk =   0.0025510
        k(  403) = (   0.4285714  -0.4285714  -0.0000000), wk =   0.0012755
        k(  404) = (   0.4285714  -0.4285714   0.1250000), wk =   0.0025510
        k(  405) = (   0.4285714  -0.4285714   0.2500000), wk =   0.0025510
        k(  406) = (   0.4285714  -0.4285714   0.3750000), wk =   0.0025510
        k(  407) = (   0.4285714  -0.4285714  -0.5000000), wk =   0.0012755
        k(  408) = (  -0.5000000  -0.5000000   0.1250000), wk =   0.0012755
        k(  409) = (  -0.5000000  -0.5000000   0.2500000), wk =   0.0012755
        k(  410) = (  -0.5000000  -0.5000000   0.3750000), wk =   0.0012755
        k(  411) = (  -0.5000000  -0.5000000  -0.5000000), wk =   0.0006378

     Dense  grid:    41977 G-vectors     FFT dimensions: (  72,  72,  72)

     Smooth grid:    14855 G-vectors     FFT dimensions: (  48,  48,  48)

     Dynamical RAM for                 wfc:       0.62 MB

     Dynamical RAM for     wfc (w. buffer):     513.04 MB

     Dynamical RAM for           str. fact:       1.28 MB

     Dynamical RAM for           local pot:       0.00 MB

     Dynamical RAM for          nlocal pot:       2.04 MB

     Dynamical RAM for                qrad:       2.87 MB

     Dynamical RAM for          rho,v,vnew:      20.93 MB

     Dynamical RAM for               rhoin:       6.98 MB

     Dynamical RAM for            rho*nmix:      20.50 MB

     Dynamical RAM for           G-vectors:       2.52 MB

     Dynamical RAM for          h,s,v(r/c):       0.09 MB

     Dynamical RAM for          <psi|beta>:       0.02 MB

     Dynamical RAM for                 psi:       1.25 MB

     Dynamical RAM for                hpsi:       1.25 MB

     Dynamical RAM for                spsi:       1.25 MB

     Dynamical RAM for      wfcinit/wfcrot:       1.60 MB

     Dynamical RAM for           addusdens:     121.06 MB

     Dynamical RAM for          addusforce:     122.35 MB

     Dynamical RAM for         addusstress:     129.70 MB

     Estimated static dynamical RAM per process >     568.66 MB

     Estimated max dynamical RAM per process >     718.87 MB

     Check: negative core charge=   -0.000003
     Generating pointlists ...
     new r_m :   0.1697 (alat units)  1.9854 (a.u.) for type    1
     new r_m :   0.1697 (alat units)  1.9854 (a.u.) for type    2

     Initial potential from superposition of free atoms

     starting charge      35.9958, renormalised to      36.0000
     Starting wfcs are   28 randomized atomic wfcs
     Checking if some PAW data can be deallocated... 

     total cpu time spent up to now is       84.6 secs

     Self-consistent Calculation

     iteration #  1     ecut=    40.00 Ry     beta= 0.40
     Davidson diagonalization with overlap

---- Real-time Memory Report at c_bands before calling an iterative solver
           617 MiB given to the printing process from OS
             0 MiB allocation reported by mallinfo(arena+hblkhd)
          1112 MiB available memory on the node where the printing process lives
------------------
     ethr =  1.00E-02,  avg # of iterations =  2.8

     total cpu time spent up to now is      289.3 secs

     total energy              =    -688.09912721 Ry
     estimated scf accuracy    <       0.83136503 Ry

     total magnetization       =     1.77 Bohr mag/cell
     absolute magnetization    =     2.12 Bohr mag/cell

     iteration #  2     ecut=    40.00 Ry     beta= 0.40
     Davidson diagonalization with overlap

---- Real-time Memory Report at c_bands before calling an iterative solver
           754 MiB given to the printing process from OS
             0 MiB allocation reported by mallinfo(arena+hblkhd)
          1434 MiB available memory on the node where the printing process lives
------------------
     ethr =  2.31E-03,  avg # of iterations =  2.2

     total cpu time spent up to now is      494.3 secs

     total energy              =    -688.35550912 Ry
     estimated scf accuracy    <       0.14871954 Ry

     total magnetization       =     1.31 Bohr mag/cell
     absolute magnetization    =     1.71 Bohr mag/cell

     iteration #  3     ecut=    40.00 Ry     beta= 0.40
     Davidson diagonalization with overlap

---- Real-time Memory Report at c_bands before calling an iterative solver
           755 MiB given to the printing process from OS
             0 MiB allocation reported by mallinfo(arena+hblkhd)
          1396 MiB available memory on the node where the printing process lives
------------------
     ethr =  4.13E-04,  avg # of iterations =  1.6

     total cpu time spent up to now is      676.0 secs

     total energy              =    -688.44488772 Ry
     estimated scf accuracy    <       0.06130103 Ry

     total magnetization       =     0.66 Bohr mag/cell
     absolute magnetization    =     1.13 Bohr mag/cell

     iteration #  4     ecut=    40.00 Ry     beta= 0.40
     Davidson diagonalization with overlap

---- Real-time Memory Report at c_bands before calling an iterative solver
           756 MiB given to the printing process from OS
             0 MiB allocation reported by mallinfo(arena+hblkhd)
          1415 MiB available memory on the node where the printing process lives
------------------
     ethr =  1.70E-04,  avg # of iterations =  2.3

     total cpu time spent up to now is      890.5 secs

     total energy              =    -688.46615303 Ry
     estimated scf accuracy    <       0.00544860 Ry

     total magnetization       =     0.01 Bohr mag/cell
     absolute magnetization    =     0.38 Bohr mag/cell

     iteration #  5     ecut=    40.00 Ry     beta= 0.40
     Davidson diagonalization with overlap

---- Real-time Memory Report at c_bands before calling an iterative solver
           757 MiB given to the printing process from OS
             0 MiB allocation reported by mallinfo(arena+hblkhd)
          1257 MiB available memory on the node where the printing process lives
------------------
     c_bands:  1 eigenvalues not converged
     c_bands:  1 eigenvalues not converged
     ethr =  1.51E-05,  avg # of iterations =  6.8

     total cpu time spent up to now is     1216.0 secs

     total energy              =    -688.47110226 Ry
     estimated scf accuracy    <       0.00437790 Ry

     total magnetization       =     0.01 Bohr mag/cell
     absolute magnetization    =     0.19 Bohr mag/cell

     iteration #  6     ecut=    40.00 Ry     beta= 0.40
     Davidson diagonalization with overlap

---- Real-time Memory Report at c_bands before calling an iterative solver
           758 MiB given to the printing process from OS
             0 MiB allocation reported by mallinfo(arena+hblkhd)
          1241 MiB available memory on the node where the printing process lives
------------------
     ethr =  1.22E-05,  avg # of iterations =  1.0

     total cpu time spent up to now is     1396.2 secs

     total energy              =    -688.47195632 Ry
     estimated scf accuracy    <       0.00501096 Ry

     total magnetization       =     0.01 Bohr mag/cell
     absolute magnetization    =     0.19 Bohr mag/cell

     iteration #  7     ecut=    40.00 Ry     beta= 0.40
     Davidson diagonalization with overlap

---- Real-time Memory Report at c_bands before calling an iterative solver
           758 MiB given to the printing process from OS
             0 MiB allocation reported by mallinfo(arena+hblkhd)
          1074 MiB available memory on the node where the printing process lives
------------------
     ethr =  1.22E-05,  avg # of iterations =  1.0

     total cpu time spent up to now is     1579.2 secs

     total energy              =    -688.47104635 Ry
     estimated scf accuracy    <       0.00475911 Ry

     total magnetization       =     0.01 Bohr mag/cell
     absolute magnetization    =     0.16 Bohr mag/cell

     iteration #  8     ecut=    40.00 Ry     beta= 0.40
     Davidson diagonalization with overlap

---- Real-time Memory Report at c_bands before calling an iterative solver
           760 MiB given to the printing process from OS
             0 MiB allocation reported by mallinfo(arena+hblkhd)
          1053 MiB available memory on the node where the printing process lives
------------------
     ethr =  1.22E-05,  avg # of iterations =  2.2

     total cpu time spent up to now is     1790.3 secs

     total energy              =    -688.47188877 Ry
     estimated scf accuracy    <       0.00042231 Ry

     total magnetization       =     0.00 Bohr mag/cell
     absolute magnetization    =     0.04 Bohr mag/cell

     iteration #  9     ecut=    40.00 Ry     beta= 0.40
     Davidson diagonalization with overlap

---- Real-time Memory Report at c_bands before calling an iterative solver
           761 MiB given to the printing process from OS
             0 MiB allocation reported by mallinfo(arena+hblkhd)
          1057 MiB available memory on the node where the printing process lives
------------------
     ethr =  1.17E-06,  avg # of iterations =  4.1

     total cpu time spent up to now is     2002.4 secs

     total energy              =    -688.47173791 Ry
[...]
    13.9876  14.0670  16.0862  16.1343  17.0393  17.0465

     occupation numbers 
     1.0000   1.0000   1.0000   1.0000   1.0000   1.0000   1.0000   1.0000
     1.0000   1.0000   1.0000   1.0000   1.0000   1.0000   1.0000   1.0000
     1.0000   1.0000   0.0000   0.0000   0.0000   0.0000

          k = 0.0988 0.0988 0.4640 (  1852 PWs)   bands (ev):

   -40.0002 -39.9917 -16.1695 -16.1363 -16.1272 -16.0753 -15.9689 -15.9687
     2.9298   3.4241  10.3990  11.1545  11.8433  11.9000  12.3528  12.4446
    14.0884  14.1405  16.0122  16.1084  17.0877  17.0949

     occupation numbers 
     1.0000   1.0000   1.0000   1.0000   1.0000   1.0000   1.0000   1.0000
     1.0000   1.0000   1.0000   1.0000   1.0000   1.0000   1.0000   1.0000
     1.0000   1.0000   0.0000   0.0000   0.0000   0.0000

          k = 0.3294 0.3294 0.4640 (  1863 PWs)   bands (ev):

   -39.9909 -39.9838 -16.2167 -16.2089 -16.1263 -16.0722 -16.0154 -16.0071
     3.5043   3.8972  10.3761  10.9012  11.0403  11.1440  12.1460  12.3990
    13.7798  13.7969  16.3133  16.4019  16.9571  17.0773

     occupation numbers 
     1.0000   1.0000   1.0000   1.0000   1.0000   1.0000   1.0000   1.0000
     1.0000   1.0000   1.0000   1.0000   1.0000   1.0000   1.0000   1.0000
     1.0000   1.0000   0.0000   0.0000   0.0000   0.0000

          k = 0.5600 0.5600 0.4640 (  1850 PWs)   bands (ev):

   -39.9770 -39.9721 -16.2954 -16.2945 -16.1427 -16.1268 -16.0477 -16.0179
     4.2468   4.4480   9.8883   9.9206  10.5856  10.7138  12.0045  12.2778
    13.8088  13.9741  16.5210  16.6890  17.5283  17.6318

     occupation numbers 
     1.0000   1.0000   1.0000   1.0000   1.0000   1.0000   1.0000   1.0000
     1.0000   1.0000   1.0000   1.0000   1.0000   1.0000   1.0000   1.0000
     1.0000   1.0000   0.0000   0.0000   0.0000   0.0000

          k =-0.6917 1.0211-0.0387 (  1843 PWs)   bands (ev):

   -39.9684 -39.9643 -16.3604 -16.3261 -16.1895 -16.1612 -16.0448 -16.0106
     4.5593   4.6296   9.4619   9.8468  10.2135  10.6297  12.0522  12.1099
    14.0477  14.3157  16.9851  17.4559  17.7572  17.8945

     occupation numbers 
     1.0000   1.0000   1.0000   1.0000   1.0000   1.0000   1.0000   1.0000
     1.0000   1.0000   1.0000   1.0000   1.0000   1.0000   1.0000   1.0000
     1.0000   1.0000   0.0000   0.0000   0.0000   0.0000

          k =-0.4611 1.2517-0.0387 (  1849 PWs)   bands (ev):

   -39.9785 -39.9744 -16.3154 -16.2524 -16.1483 -16.1072 -16.0432 -16.0191
     4.2230   4.3423   9.7463  10.2081  10.4418  10.9665  12.0386  12.2705
    13.7619  13.9620  16.4652  16.6835  17.3278  17.6447

     occupation numbers 
     1.0000   1.0000   1.0000   1.0000   1.0000   1.0000   1.0000   1.0000
     1.0000   1.0000   1.0000   1.0000   1.0000   1.0000   1.0000   1.0000
     1.0000   1.0000   0.0000   0.0000   0.0000   0.0000

          k =-0.2306 1.4822-0.0387 (  1865 PWs)   bands (ev):

   -39.9909 -39.9867 -16.2312 -16.1738 -16.1160 -16.0844 -16.0231 -15.9861
     3.5148   3.7276  10.3920  10.7407  11.0949  11.5197  12.1993  12.4929
    13.5638  14.0253  16.1613  16.4853  16.6875  17.2881

     occupation numbers 
     1.0000   1.0000   1.0000   1.0000   1.0000   1.0000   1.0000   1.0000
     1.0000   1.0000   1.0000   1.0000   1.0000   1.0000   1.0000   1.0000
     1.0000   1.0000   0.0000   0.0000   0.0000   0.0000

          k =-1.8446-0.1318-0.0387 (  1860 PWs)   bands (ev):

   -39.9982 -39.9939 -16.1565 -16.1313 -16.1245 -16.0958 -15.9739 -15.9620
     3.0390   3.2882  10.5968  10.9909  11.7888  12.0504  12.1391  12.5154
    13.9911  14.3505  15.7812  16.3158  16.9600  17.1753

     occupation numbers 
     1.0000   1.0000   1.0000   1.0000   1.0000   1.0000   1.0000   1.0000
     1.0000   1.0000   1.0000   1.0000   1.0000   1.0000   1.0000   1.0000
     1.0000   1.0000   0.0000   0.0000   0.0000   0.0000

          k =-1.6140 0.0988-0.0387 (  1864 PWs)   bands (ev):

   -39.9961 -39.9918 -16.1834 -16.1425 -16.1199 -16.0890 -15.9935 -15.9659
     3.1793   3.4190  10.5201  10.9478  11.5042  11.8084  12.2891  12.7058
    13.6388  14.2784  15.7381  16.6205  16.7205  17.1800

     occupation numbers 
     1.0000   1.0000   1.0000   1.0000   1.0000   1.0000   1.0000   1.0000
     1.0000   1.0000   1.0000   1.0000   1.0000   1.0000   1.0000   1.0000
     1.0000   1.0000   0.0000   0.0000   0.0000   0.0000

          k =-1.3834 0.3294-0.0387 (  1859 PWs)   bands (ev):

   -39.9858 -39.9816 -16.2695 -16.2055 -16.1215 -16.0905 -16.0355 -16.0061
     3.8268   4.0067  10.2546  10.3846  10.9330  11.1589  12.0498  12.3166
    13.6684  13.9729  16.3255  16.5568  16.7973  17.4558

     occupation numbers 
     1.0000   1.0000   1.0000   1.0000   1.0000   1.0000   1.0000   1.0000
     1.0000   1.0000   1.0000   1.0000   1.0000   1.0000   1.0000   1.0000
     1.0000   1.0000   0.0000   0.0000   0.0000   0.0000

          k =-1.1529 0.5600-0.0387 (  1847 PWs)   bands (ev):

   -39.9735 -39.9694 -16.3413 -16.2869 -16.1706 -16.1290 -16.0461 -16.0164
     4.4379   4.5108   9.5055   9.9690  10.3182  10.8353  12.0731  12.2551
    13.8548  14.0430  16.6259  16.9768  17.6269  17.7106

     occupation numbers 
     1.0000   1.0000   1.0000   1.0000   1.0000   1.0000   1.0000   1.0000
     1.0000   1.0000   1.0000   1.0000   1.0000   1.0000   1.0000   1.0000
     1.0000   1.0000   0.0000   0.0000   0.0000   0.0000

          k =-0.7905 0.7905-0.0000 (  1845 PWs)   bands (ev):

   -39.9693 -39.9609 -16.3503 -16.3487 -16.1848 -16.1809 -16.0616 -15.9908
     4.5039   4.7176   9.5589   9.5717  10.3589  10.7593  11.8679  12.0046
    14.0019  14.6175  17.0160  17.4991  17.5726  18.3760

     occupation numbers 
     1.0000   1.0000   1.0000   1.0000   1.0000   1.0000   1.0000   1.0000
     1.0000   1.0000   1.0000   1.0000   1.0000   1.0000   1.0000   1.0000
     1.0000   1.0417   0.0000   0.0000   0.0000   0.0000

          k =-0.5600 1.0211-0.0000 (  1853 PWs)   bands (ev):

   -39.9733 -39.9656 -16.3698 -16.2815 -16.1953 -16.1284 -16.0565 -15.9994
     4.5153   4.6006   9.2301   9.9501  10.2098  10.9862  12.0557  12.2348
    13.8807  14.1960  16.5551  17.3716  17.6057  17.7302

     occupation numbers 
     1.0000   1.0000   1.0000   1.0000   1.0000   1.0000   1.0000   1.0000
     1.0000   1.0000   1.0000   1.0000   1.0000   1.0000   1.0000   1.0000
     1.0000   1.0000   0.0000   0.0000   0.0000   0.0000

          k =-0.3294 1.2517-0.0000 (  1850 PWs)   bands (ev):

   -39.9829 -39.9771 -16.3254 -16.2023 -16.1493 -16.0960 -16.0365 -15.9998
     4.1055   4.2045   9.6333  10.0497  10.9041  11.3690  12.0111  12.3536
    13.6489  14.0596  16.2928  16.5961  16.8907  17.7687

     occupation numbers 
     1.0000   1.0000   1.0000   1.0000   1.0000   1.0000   1.0000   1.0000
     1.0000   1.0000   1.0000   1.0000   1.0000   1.0000   1.0000   1.0000
     1.0000   1.0000   0.0000   0.0000   0.0000   0.0000

          k =-0.0988 1.4822-0.0000 (  1878 PWs)   bands (ev):

   -39.9923 -39.9892 -16.2356 -16.1389 -16.1144 -16.0924 -16.0267 -15.9616
     3.4684   3.5585  10.3111  10.6038  11.3554  11.8564  12.2139  12.8316
    13.3199  14.4774  15.4953  16.2785  16.8997  17.5995

     occupation numbers 
     1.0000   1.0000   1.0000   1.0000   1.0000   1.0000   1.0000   1.0000
     1.0000   1.0000   1.0000   1.0000   1.0000   1.0000   1.0000   1.0000
     1.0000   1.0002   0.0000   0.0000   0.0000   0.0000

          k =-1.7128-0.1318-0.0000 (  1848 PWs)   bands (ev):

   -39.9952 -39.9952 -16.1504 -16.1504 -16.1087 -16.1087 -15.9726 -15.9726
     3.2137   3.2137  10.7917  10.7917  11.7441  11.7441  12.4339  12.4339
    14.0467  14.0467  16.1544  16.1544  16.9830  16.9830

     occupation numbers 
     1.0000   1.0000   1.0000   1.0000   1.0000   1.0000   1.0000   1.0000
     1.0000   1.0000   1.0000   1.0000   1.0000   1.0000   1.0000   1.0000
     1.0000   1.0000   0.0000   0.0000   0.0000   0.0000

          k =-0.6917-0.6917-0.5414 (  1838 PWs)   bands (ev):

   -39.9683 -39.9683 -16.3321 -16.3321 -16.1645 -16.1645 -16.0299 -16.0299
     4.5482   4.5482   9.6787   9.6787  10.4709  10.4709  12.1378  12.1378
    14.0617  14.0617  17.0192  17.0192  17.7657  17.7657

     occupation numbers 
     1.0000   1.0000   1.0000   1.0000   1.0000   1.0000   1.0000   1.0000
     1.0000   1.0000   1.0000   1.0000   1.0000   1.0000   1.0000   1.0000
     1.0000   1.0000   0.0000   0.0000   0.0000   0.0000

          k =-0.4611-0.4611-0.5414 (  1862 PWs)   bands (ev):

   -39.9801 -39.9801 -16.2608 -16.2608 -16.1113 -16.1113 -16.0319 -16.0319
     4.0936   4.0936  10.3317  10.3317  10.6822  10.6822  12.1369  12.1369
    13.8291  13.8291  16.5326  16.5326  17.2741  17.2741

     occupation numbers 
     1.0000   1.0000   1.0000   1.0000   1.0000   1.0000   1.0000   1.0000
     1.0000   1.0000   1.0000   1.0000   1.0000   1.0000   1.0000   1.0000
     1.0000   1.0000   0.0000   0.0000   0.0000   0.0000

          k =-0.2306-0.2306-0.5414 (  1868 PWs)   bands (ev):

   -39.9920 -39.9920 -16.1784 -16.1784 -16.1016 -16.1016 -15.9906 -15.9906
     3.4179   3.4179  10.7442  10.7442  11.4283  11.4283  12.4542  12.4542
    13.8052  13.8052  16.4344  16.4344  16.7847  16.7847

     occupation numbers 
     1.0000   1.0000   1.0000   1.0000   1.0000   1.0000   1.0000   1.0000
     1.0000   1.0000   1.0000   1.0000   1.0000   1.0000   1.0000   1.0000
     1.0000   1.0000   0.0000   0.0000   0.0000   0.0000

          k =-1.8446-1.8446-0.5414 (  1834 PWs)   bands (ev):

   -39.9969 -39.9969 -16.1258 -16.1258 -16.1229 -16.1229 -15.9628 -15.9628
     3.1075   3.1075  10.8225  10.8225  12.1165  12.1165  12.1392  12.1392
    14.2903  14.2903  15.9867  15.9867  17.1339  17.1339

     occupation numbers 
     1.0000   1.0000   1.0000   1.0000   1.0000   1.0000   1.0000   1.0000
     1.0000   1.0000   1.0000   1.0000   1.0000   1.0000   1.0000   1.0000
     1.0000   1.0000   0.0000   0.0000   0.0000   0.0000

     the Fermi energy is    14.8170 ev

!    total energy              =    -688.47181887 Ry
     estimated scf accuracy    <          1.4E-10 Ry
     smearing contrib. (-TS)   =       0.00005609 Ry
     internal energy E=F+TS    =    -688.47187496 Ry

     The total energy is F=E-TS. E is the sum of the following terms:
     one-electron contribution =     -37.27429070 Ry
     hartree contribution      =      39.41281011 Ry
     xc contribution           =     -66.44809965 Ry
     ewald contribution        =    -215.34496265 Ry
     one-center paw contrib.   =    -408.81733206 Ry
      -> PAW hartree energy AE =     136.91158312 Ry
      -> PAW hartree energy PS =    -136.15228961 Ry
      -> PAW xc energy AE      =    -463.28305422 Ry
      -> PAW xc energy PS      =      53.70642866 Ry
      -> total E_H with PAW    =      40.17210361 Ry
      -> total E_XC with PAW   =    -476.02472521 Ry

     total magnetization       =     0.00 Bohr mag/cell
     absolute magnetization    =     0.00 Bohr mag/cell

     convergence has been achieved in  18 iterations

     Forces acting on atoms (cartesian axes, Ry/au):

     atom    1 type  1   force =    -0.00000000   -0.00000000   -0.00002993
     atom    2 type  1   force =     0.00000000    0.00000000   -0.00002993
     atom    3 type  2   force =     0.00000000   -0.00000000    0.00002993
     atom    4 type  2   force =     0.00000000   -0.00000000    0.00002993
     The non-local contrib.  to forces
     atom    1 type  1   force =    -0.00000000    0.00000000   -0.00440554
     atom    2 type  1   force =    -0.00000000   -0.00000000   -0.00440554
     atom    3 type  2   force =    -0.00000000    0.00000000   -0.00407003
     atom    4 type  2   force =     0.00000000   -0.00000000   -0.00407003
     The ionic contribution  to forces
     atom    1 type  1   force =     0.00000000   -0.00000000   -0.10637256
     atom    2 type  1   force =    -0.00000000   -0.00000000   -0.10637256
     atom    3 type  2   force =     0.00000000    0.00000000    0.10637256
     atom    4 type  2   force =    -0.00000000   -0.00000000    0.10637256
     The local contribution  to forces
     atom    1 type  1   force =    -0.00000000    0.00000000    0.11030030
     atom    2 type  1   force =    -0.00000000    0.00000000    0.11030030
     atom    3 type  2   force =     0.00000000    0.00000000   -0.10228527
     atom    4 type  2   force =     0.00000000    0.00000000   -0.10228527
     The core correction contribution to forces
     atom    1 type  1   force =    -0.00000000    0.00000000    0.00045017
     atom    2 type  1   force =     0.00000000    0.00000000    0.00045017
     atom    3 type  2   force =    -0.00000000   -0.00000000    0.00001306
     atom    4 type  2   force =     0.00000000    0.00000000    0.00001306
     The Hubbard contrib.    to forces
     atom    1 type  1   force =     0.00000000    0.00000000    0.00000000
     atom    2 type  1   force =     0.00000000    0.00000000    0.00000000
     atom    3 type  2   force =     0.00000000    0.00000000    0.00000000
     atom    4 type  2   force =     0.00000000    0.00000000    0.00000000
     The SCF correction term to forces
     atom    1 type  1   force =    -0.00000000   -0.00000000   -0.00000222
     atom    2 type  1   force =     0.00000000    0.00000000   -0.00000222
     atom    3 type  2   force =     0.00000000   -0.00000000   -0.00000031
     atom    4 type  2   force =    -0.00000000   -0.00000000   -0.00000031

     Total force =     0.000060     Total SCF correction =     0.000003


     Computing stress (Cartesian axis) and pressure

          total   stress  (Ry/bohr**3)                   (kbar)     P=      -67.18
  -0.00047041  -0.00000000  -0.00000000          -69.20       -0.00       -0.00
  -0.00000000  -0.00047041  -0.00000000           -0.00      -69.20       -0.00
  -0.00000000  -0.00000000  -0.00042916           -0.00       -0.00      -63.13

     kinetic stress (kbar)  21869.50      0.00      0.00
                                0.00  21869.50      0.00
                                0.00      0.00  22074.96

     local   stress (kbar)  -6027.25     -0.00      0.00
                               -0.00  -6027.25     -0.00
                                0.00     -0.00  -5252.55

     nonloc. stress (kbar)   8544.25      0.00     -0.00
                                0.00   8544.25     -0.00
                               -0.00     -0.00   8475.80

     hartree stress (kbar)   4431.86     -0.00     -0.00
                               -0.00   4431.86      0.00
                               -0.00      0.00   4473.04

     exc-cor stress (kbar)   6099.28     -0.00      0.00
                               -0.00   6099.28     -0.00
                                0.00     -0.00   6099.07

     corecor stress (kbar) -11013.37     -0.00      0.00
                               -0.00 -11013.37      0.00
                                0.00      0.00 -11010.63

     ewald   stress (kbar) -23973.47      0.00     -0.00
                                0.00 -23973.47      0.00
                               -0.00      0.00 -24922.81

     hubbard stress (kbar)      0.00      0.00      0.00
                                0.00      0.00      0.00
                                0.00      0.00      0.00

     DFT-D   stress (kbar)      0.00      0.00      0.00
                                0.00      0.00      0.00
                                0.00      0.00      0.00

     XDM     stress (kbar)      0.00      0.00      0.00
                                0.00      0.00      0.00
                                0.00      0.00      0.00

     dft-nl  stress (kbar)      0.00      0.00      0.00
                                0.00      0.00      0.00
                                0.00      0.00      0.00

     TS-vdW  stress (kbar)      0.00      0.00      0.00
                                0.00      0.00      0.00
                                0.00      0.00      0.00

     MDB     stress (kbar)      0.00      0.00      0.00
                                0.00      0.00      0.00
                                0.00      0.00      0.00

     3D-RISM stress (kbar)      0.00      0.00      0.00
                                0.00      0.00      0.00
                                0.00      0.00      0.00


     Writing all to output data dir ./out/NbP_spin.save/

     init_run     :    179.32s CPU     84.38s WALL (       1 calls)
     electrons    :   9003.47s CPU   4121.89s WALL (       1 calls)
     forces       :      6.64s CPU      2.58s WALL (       1 calls)
     stress       :    195.18s CPU    100.19s WALL (       1 calls)

     Called by init_run:
     wfcinit      :    177.31s CPU     82.67s WALL (       1 calls)
     wfcinit:atom :      1.60s CPU      0.70s WALL (     822 calls)
     wfcinit:wfcr :    169.14s CPU     79.17s WALL (     822 calls)
     potinit      :      0.78s CPU      0.84s WALL (       1 calls)
     hinit0       :      0.50s CPU      0.52s WALL (       1 calls)

     Called by electrons:
     c_bands      :   8209.71s CPU   3658.92s WALL (      18 calls)
     sum_band     :    770.28s CPU    444.51s WALL (      18 calls)
     v_of_rho     :      5.88s CPU      6.26s WALL (      19 calls)
     v_h          :      0.13s CPU      0.14s WALL (      19 calls)
     v_xc         :      6.43s CPU      6.76s WALL (      21 calls)
     newd         :      9.69s CPU      4.09s WALL (      19 calls)
     PAW_pot      :      8.12s CPU      8.15s WALL (      19 calls)
     mix_rho      :      0.46s CPU      0.47s WALL (      18 calls)

     Called by c_bands:
     init_us_2    :     61.11s CPU     22.02s WALL (   32058 calls)
     init_us_2:cp :     60.91s CPU     21.95s WALL (   32058 calls)
     cegterg      :   7962.56s CPU   3550.75s WALL (   14796 calls)

     Called by sum_band:
     sum_band:wei :      0.68s CPU      0.30s WALL (      18 calls)
     sum_band:loo :    739.84s CPU    436.17s WALL (      18 calls)
     sum_band:buf :      2.85s CPU      1.08s WALL (   14796 calls)
     sum_band:ini :     21.27s CPU      8.06s WALL (   14796 calls)
     sum_band:cal :     10.48s CPU      4.03s WALL (   14796 calls)
     sum_band:bec :      0.60s CPU      0.24s WALL (   14796 calls)
     addusdens    :     29.05s CPU      7.62s WALL (      18 calls)
                                        0.00s GPU  (      18 calls)
     addusd:skk   :      0.03s CPU      0.01s WALL (      36 calls)
                                        0.00s GPU  (      36 calls)

     Called by *egterg:
     cdiaghg      :    130.62s CPU     41.61s WALL (   59914 calls)
     cegterg:over :     83.88s CPU     13.09s WALL (   45118 calls)
     cegterg:upda :     49.68s CPU     14.38s WALL (   45118 calls)
     cegterg:last :     70.67s CPU     15.44s WALL (   30609 calls)
     h_psi        :   7638.78s CPU   3513.09s WALL (   60736 calls)
     s_psi        :     77.38s CPU     15.66s WALL (   60736 calls)
     g_psi        :     17.76s CPU      4.34s WALL (   45118 calls)

     Called by h_psi:
     h_psi:calbec :     70.76s CPU     23.76s WALL (   60736 calls)
     vloc_psi     :   7359.25s CPU   3451.60s WALL (   60736 calls)
     add_vuspsi   :    197.93s CPU     34.46s WALL (   60736 calls)

     General routines
     calbec       :     82.77s CPU     28.32s WALL (   79642 calls)
     fft          :      2.92s CPU      2.81s WALL (     513 calls)
     ffts         :      0.19s CPU      0.13s WALL (      74 calls)
     fftw         :   7131.61s CPU   3453.43s WALL ( 2059832 calls)
     interpolate  :      0.30s CPU      0.30s WALL (      38 calls)

     Parallel routines

     PAW routines
     PAW_pot      :      8.12s CPU      8.15s WALL (      19 calls)
     PAW_symme    :      0.01s CPU      0.01s WALL (      37 calls)

     PWSCF        :      2h36m CPU      1h11m WALL


   This run was terminated on:  15: 2:44   5Sep2024            

=------------------------------------------------------------------------------=
   JOB DONE.
=------------------------------------------------------------------------------=
